# vtk DataFile Version 2.0
LBE mesh
ASCII
DATASET STRUCTURED_POINTS
DIMENSIONS 300 100 1
ASPECT_RATIO 1 1 1
ORIGIN 0 0 0
POINT_DATA 30000
SCALARS rho double 1
LOOKUP_TABLE default
1047.08
1015.41
1014.69
1021.16
1019.32
1015.41
1015.21
1015.71
1014.93
1014.13
1013.95
1013.78
1013.39
1013.07
1012.85
1012.62
1012.36
1012.11
1011.89
1011.65
1011.42
1011.18
1010.94
1010.69
1010.44
1010.19
1009.93
1009.66
1009.38
1009.1
1008.8
1008.5
1008.19
1007.87
1007.53
1007.19
1006.83
1006.46
1006.08
1005.69
1005.28
1004.86
1004.42
1003.97
1003.5
1003.02
1002.52
1002
1001.47
1000.93
1000.36
999.78
999.183
998.571
997.943
997.299
996.642
995.971
995.288
994.592
993.886
993.171
992.447
991.718
990.983
990.245
989.505
988.765
988.027
987.293
986.563
985.841
985.128
984.425
983.733
983.055
982.392
981.744
981.114
980.501
979.907
979.333
978.779
978.246
977.733
977.243
976.774
976.326
975.901
975.497
975.116
974.755
974.416
974.098
973.8
973.523
973.266
973.029
972.81
972.611
972.43
972.266
972.12
971.991
971.878
971.78
971.699
971.632
971.578
971.54
971.514
971.502
971.501
971.513
971.536
971.57
971.614
971.669
971.734
971.807
971.89
971.981
972.081
972.188
972.303
972.424
972.552
972.687
972.827
972.973
973.124
973.28
973.44
973.605
973.773
973.943
974.117
974.292
974.469
974.648
974.828
975.008
975.188
975.368
975.546
975.723
975.898
976.071
976.24
976.407
976.569
976.727
976.881
977.029
977.173
977.31
977.441
977.566
977.685
977.797
977.902
977.999
978.089
978.172
978.247
978.315
978.374
978.426
978.47
978.506
978.535
978.556
978.569
978.575
978.573
978.563
978.546
978.521
978.489
978.449
978.401
978.346
978.283
978.212
978.134
978.047
977.953
977.852
977.743
977.626
977.502
977.372
977.235
977.092
976.945
976.793
976.637
976.478
976.317
976.156
975.996
975.837
975.681
975.529
975.383
975.244
975.113
974.992
974.882
974.785
974.701
974.632
974.579
974.542
974.523
974.522
974.54
974.576
974.632
974.706
974.8
974.912
975.043
975.19
975.355
975.536
975.732
975.941
976.162
976.395
976.638
976.89
977.148
977.413
977.682
977.955
978.229
978.503
978.776
979.048
979.316
979.58
979.839
980.092
980.338
980.577
980.807
981.028
981.24
981.441
981.633
981.814
981.983
982.142
982.289
982.425
982.55
982.662
982.764
982.853
982.932
982.998
983.054
983.099
983.132
983.154
983.166
983.167
983.157
983.137
983.106
983.065
983.013
982.951
982.879
982.795
982.701
982.595
982.477
982.348
982.207
982.048
981.874
981.691
981.483
981.235
980.985
980.733
980.367
979.928
979.641
979.217
978.207
977.533
977.689
975.714
971.874
973.896
974.672
951.03
1029.99
1026.44
1022.36
1017.16
1017.34
1017.49
1016.31
1015.14
1014.9
1014.64
1014.15
1013.74
1013.49
1013.23
1012.93
1012.66
1012.42
1012.18
1011.93
1011.69
1011.45
1011.21
1010.96
1010.71
1010.46
1010.2
1009.93
1009.66
1009.38
1009.09
1008.8
1008.49
1008.18
1007.85
1007.52
1007.17
1006.81
1006.44
1006.06
1005.66
1005.25
1004.83
1004.39
1003.93
1003.46
1002.98
1002.48
1001.96
1001.43
1000.88
1000.32
999.736
999.138
998.525
997.897
997.254
996.597
995.926
995.243
994.548
993.843
993.13
992.408
991.68
990.947
990.211
989.473
988.736
988.001
987.269
986.543
985.824
985.114
984.414
983.726
983.051
982.391
981.746
981.118
980.509
979.918
979.346
978.795
978.265
977.755
977.267
976.8
976.354
975.931
975.529
975.149
974.79
974.452
974.135
973.838
973.562
973.306
973.069
972.852
972.652
972.471
972.308
972.162
972.033
971.92
971.823
971.741
971.673
971.621
971.582
971.556
971.543
971.542
971.553
971.576
971.609
971.653
971.707
971.771
971.844
971.926
972.017
972.115
972.222
972.336
972.457
972.584
972.718
972.858
973.003
973.153
973.308
973.468
973.632
973.799
973.969
974.142
974.317
974.494
974.672
974.851
975.03
975.21
975.389
975.567
975.744
975.918
976.09
976.26
976.426
976.588
976.746
976.899
977.047
977.191
977.328
977.459
977.584
977.702
977.814
977.919
978.016
978.106
978.188
978.263
978.331
978.39
978.442
978.486
978.522
978.55
978.571
978.584
978.59
978.587
978.578
978.56
978.536
978.503
978.464
978.416
978.361
978.298
978.228
978.15
978.064
977.971
977.87
977.762
977.646
977.523
977.394
977.258
977.117
976.97
976.819
976.665
976.507
976.348
976.187
976.028
975.869
975.714
975.562
975.417
975.277
975.147
975.025
974.915
974.817
974.732
974.662
974.607
974.568
974.548
974.545
974.56
974.595
974.648
974.72
974.811
974.921
975.049
975.195
975.357
975.536
975.729
975.935
976.155
976.386
976.627
976.877
977.134
977.397
977.665
977.935
978.208
978.482
978.754
979.025
979.293
979.556
979.815
980.068
980.314
980.552
980.782
981.003
981.215
981.417
981.609
981.79
981.96
982.119
982.267
982.404
982.528
982.641
982.743
982.833
982.912
982.98
983.036
983.08
983.114
983.137
983.149
983.149
983.14
983.12
983.089
983.047
982.995
982.932
982.858
982.774
982.678
982.571
982.452
982.319
982.173
982.014
981.837
981.639
981.427
981.195
980.918
980.608
980.303
979.919
979.386
978.895
978.456
977.479
976.201
975.697
974.523
970.332
966.48
964.377
1021.89
1026.7
1022.03
1017.73
1017.97
1017.69
1016.3
1015.34
1015.14
1014.79
1014.25
1013.86
1013.6
1013.31
1013.01
1012.74
1012.49
1012.24
1011.98
1011.74
1011.49
1011.24
1010.99
1010.74
1010.48
1010.22
1009.95
1009.68
1009.4
1009.1
1008.81
1008.5
1008.18
1007.85
1007.52
1007.17
1006.81
1006.43
1006.05
1005.65
1005.24
1004.81
1004.37
1003.92
1003.45
1002.96
1002.46
1001.94
1001.41
1000.85
1000.29
999.705
999.106
998.492
997.862
997.218
996.56
995.888
995.204
994.509
993.803
993.088
992.366
991.638
990.905
990.169
989.432
988.695
987.96
987.23
986.505
985.787
985.078
984.38
983.693
983.021
982.362
981.72
981.095
980.487
979.899
979.33
978.781
978.253
977.746
977.26
976.795
976.353
975.931
975.532
975.153
974.796
974.46
974.145
973.85
973.576
973.321
973.085
972.869
972.671
972.491
972.329
972.183
972.055
971.943
971.846
971.764
971.698
971.645
971.606
971.58
971.568
971.567
971.578
971.6
971.634
971.677
971.731
971.795
971.868
971.95
972.04
972.139
972.245
972.359
972.479
972.606
972.74
972.879
973.024
973.174
973.329
973.488
973.652
973.819
973.989
974.161
974.336
974.513
974.691
974.87
975.05
975.229
975.409
975.587
975.763
975.938
976.11
976.28
976.446
976.608
976.766
976.92
977.069
977.212
977.349
977.481
977.606
977.725
977.837
977.942
978.039
978.129
978.212
978.287
978.354
978.414
978.466
978.51
978.546
978.575
978.595
978.608
978.614
978.612
978.602
978.585
978.56
978.528
978.489
978.442
978.387
978.325
978.255
978.178
978.092
978
977.9
977.792
977.677
977.555
977.427
977.292
977.151
977.005
976.854
976.7
976.542
976.383
976.222
976.062
975.903
975.747
975.594
975.447
975.307
975.174
975.051
974.939
974.838
974.751
974.678
974.621
974.58
974.557
974.552
974.565
974.596
974.647
974.717
974.806
974.914
975.041
975.184
975.345
975.521
975.714
975.919
976.138
976.368
976.608
976.857
977.114
977.377
977.644
977.915
978.188
978.462
978.734
979.005
979.274
979.538
979.797
980.05
980.297
980.536
980.766
980.988
981.2
981.403
981.595
981.777
981.948
982.108
982.256
982.393
982.518
982.632
982.735
982.825
982.904
982.972
983.029
983.074
983.108
983.131
983.143
983.144
983.134
983.113
983.082
983.041
982.988
982.925
982.851
982.766
982.669
982.56
982.44
982.306
982.157
981.996
981.821
981.618
981.395
981.169
980.902
980.558
980.236
979.933
979.379
978.697
978.436
977.835
975.914
975.102
975.97
971.62
965.91
969.838
1021.62
1020.35
1019.82
1021
1018.49
1016.39
1016.35
1016.26
1015.35
1014.64
1014.4
1014.13
1013.72
1013.37
1013.12
1012.85
1012.57
1012.3
1012.06
1011.81
1011.55
1011.3
1011.05
1010.79
1010.53
1010.26
1009.99
1009.71
1009.43
1009.14
1008.83
1008.52
1008.21
1007.88
1007.54
1007.19
1006.82
1006.45
1006.06
1005.66
1005.25
1004.82
1004.38
1003.92
1003.45
1002.96
1002.45
1001.93
1001.4
1000.84
1000.27
999.688
999.086
998.468
997.836
997.189
996.527
995.852
995.165
994.467
993.758
993.041
992.315
991.585
990.849
990.111
989.371
988.633
987.896
987.164
986.438
985.72
985.01
984.312
983.626
982.954
982.297
981.656
981.033
980.427
979.841
979.274
978.728
978.202
977.698
977.215
976.754
976.314
975.895
975.499
975.123
974.769
974.436
974.123
973.831
973.559
973.306
973.073
972.859
972.663
972.485
972.324
972.18
972.054
971.943
971.847
971.767
971.701
971.649
971.611
971.586
971.574
971.574
971.586
971.609
971.643
971.687
971.741
971.805
971.878
971.96
972.051
972.149
972.256
972.37
972.49
972.617
972.751
972.891
973.036
973.186
973.341
973.501
973.664
973.831
974.002
974.175
974.35
974.528
974.706
974.886
975.066
975.246
975.426
975.604
975.781
975.957
976.13
976.3
976.467
976.63
976.789
976.943
977.093
977.236
977.375
977.507
977.633
977.752
977.865
977.97
978.068
978.159
978.242
978.317
978.385
978.445
978.497
978.542
978.578
978.607
978.628
978.642
978.647
978.646
978.636
978.62
978.595
978.564
978.524
978.478
978.424
978.362
978.293
978.216
978.132
978.04
977.94
977.833
977.719
977.597
977.469
977.334
977.193
977.047
976.895
976.74
976.582
976.421
976.259
976.097
975.936
975.778
975.622
975.473
975.329
975.194
975.068
974.952
974.848
974.758
974.682
974.621
974.577
974.551
974.542
974.552
974.582
974.63
974.698
974.785
974.892
975.016
975.159
975.319
975.495
975.687
975.892
976.111
976.342
976.582
976.832
977.09
977.353
977.622
977.894
978.168
978.442
978.717
978.989
979.258
979.524
979.784
980.039
980.287
980.527
980.759
980.981
981.195
981.398
981.592
981.774
981.946
982.107
982.256
982.393
982.52
982.634
982.737
982.828
982.908
982.976
983.033
983.078
983.112
983.135
983.148
983.149
983.139
983.118
983.087
983.045
982.993
982.929
982.855
982.769
982.673
982.564
982.442
982.309
982.162
981.997
981.818
981.627
981.406
981.152
980.902
980.623
980.231
979.831
979.529
978.974
978.086
977.663
977.285
975.382
973.714
973.761
972.701
970.591
1021.62
1019.44
1019.37
1019.26
1017.78
1017.36
1016.8
1015.95
1015.33
1015.03
1014.65
1014.19
1013.83
1013.55
1013.25
1012.95
1012.68
1012.42
1012.16
1011.89
1011.64
1011.38
1011.13
1010.86
1010.6
1010.33
1010.06
1009.78
1009.49
1009.19
1008.89
1008.58
1008.25
1007.92
1007.58
1007.23
1006.86
1006.49
1006.1
1005.69
1005.28
1004.85
1004.4
1003.94
1003.47
1002.97
1002.47
1001.94
1001.4
1000.84
1000.27
999.681
999.075
998.453
997.815
997.163
996.496
995.815
995.123
994.419
993.704
992.981
992.25
991.514
990.773
990.029
989.285
988.542
987.802
987.066
986.337
985.615
984.904
984.204
983.517
982.844
982.187
981.547
980.924
980.321
979.736
979.172
978.628
978.106
977.605
977.125
976.668
976.231
975.817
975.424
975.053
974.702
974.373
974.064
973.776
973.507
973.258
973.029
972.817
972.624
972.449
972.291
972.15
972.025
971.917
971.823
971.745
971.681
971.631
971.594
971.571
971.56
971.562
971.574
971.599
971.634
971.679
971.734
971.799
971.873
971.956
972.047
972.147
972.254
972.369
972.49
972.618
972.752
972.892
973.038
973.189
973.345
973.505
973.669
973.837
974.008
974.182
974.359
974.537
974.716
974.897
975.078
975.259
975.439
975.619
975.797
975.974
976.148
976.319
976.487
976.651
976.812
976.967
977.118
977.263
977.403
977.536
977.663
977.783
977.897
978.003
978.102
978.194
978.278
978.354
978.423
978.483
978.536
978.581
978.618
978.648
978.67
978.683
978.69
978.688
978.68
978.663
978.639
978.608
978.57
978.524
978.47
978.409
978.341
978.265
978.181
978.089
977.99
977.883
977.769
977.647
977.518
977.383
977.241
977.094
976.941
976.784
976.624
976.461
976.296
976.131
975.967
975.805
975.646
975.492
975.345
975.205
975.075
974.954
974.846
974.752
974.671
974.607
974.559
974.529
974.517
974.525
974.551
974.598
974.664
974.749
974.855
974.979
975.121
975.281
975.458
975.65
975.856
976.076
976.308
976.551
976.802
977.061
977.327
977.597
977.872
978.148
978.425
978.701
978.975
979.247
979.514
979.777
980.033
980.283
980.525
980.758
980.983
981.198
981.403
981.597
981.781
981.954
982.115
982.265
982.404
982.531
982.646
982.749
982.841
982.921
982.99
983.047
983.093
983.127
983.15
983.163
983.164
983.155
983.134
983.103
983.062
983.009
982.946
982.872
982.787
982.69
982.583
982.462
982.328
982.184
982.024
981.842
981.651
981.448
981.2
980.925
980.675
980.361
979.897
979.523
979.25
978.475
977.553
977.506
976.734
974.48
974.14
974.068
971.951
1019.53
1019.56
1019.14
1017.67
1017.8
1017.65
1016.48
1015.85
1015.68
1015.26
1014.67
1014.3
1014.05
1013.72
1013.37
1013.08
1012.82
1012.55
1012.27
1012.01
1011.76
1011.49
1011.23
1010.97
1010.7
1010.43
1010.15
1009.87
1009.57
1009.28
1008.97
1008.66
1008.33
1008
1007.65
1007.3
1006.93
1006.55
1006.16
1005.75
1005.33
1004.9
1004.45
1003.99
1003.51
1003.01
1002.5
1001.97
1001.43
1000.86
1000.28
999.686
999.074
998.444
997.799
997.139
996.464
995.776
995.075
994.362
993.639
992.907
992.168
991.423
990.673
989.922
989.17
988.42
987.672
986.931
986.196
985.47
984.755
984.051
983.362
982.687
982.029
981.389
980.766
980.164
979.581
979.019
978.479
977.96
977.463
976.987
976.534
976.102
975.693
975.305
974.938
974.593
974.269
973.965
973.682
973.418
973.173
972.948
972.741
972.552
972.38
972.227
972.089
971.968
971.863
971.772
971.697
971.636
971.588
971.554
971.533
971.525
971.528
971.543
971.569
971.606
971.653
971.71
971.776
971.852
971.936
972.029
972.13
972.238
972.354
972.477
972.606
972.741
972.882
973.03
973.182
973.339
973.501
973.666
973.835
974.007
974.183
974.36
974.54
974.721
974.903
975.085
975.267
975.449
975.63
975.81
975.988
976.164
976.337
976.506
976.672
976.834
976.991
977.143
977.29
977.431
977.566
977.694
977.816
977.931
978.039
978.139
978.232
978.318
978.395
978.465
978.527
978.581
978.626
978.665
978.695
978.718
978.732
978.739
978.739
978.731
978.715
978.692
978.661
978.624
978.578
978.525
978.465
978.397
978.321
978.237
978.146
978.047
977.94
977.825
977.703
977.573
977.437
977.294
977.144
976.99
976.83
976.667
976.5
976.332
976.163
975.994
975.827
975.664
975.505
975.352
975.207
975.071
974.946
974.833
974.733
974.648
974.579
974.527
974.493
974.478
974.483
974.507
974.552
974.616
974.701
974.806
974.93
975.072
975.233
975.411
975.604
975.812
976.035
976.269
976.514
976.768
977.03
977.299
977.572
977.849
978.128
978.408
978.688
978.965
979.239
979.509
979.775
980.034
980.285
980.53
980.765
980.992
981.208
981.415
981.611
981.796
981.97
982.133
982.284
982.423
982.551
982.666
982.771
982.863
982.944
983.013
983.071
983.117
983.152
983.175
983.188
983.19
983.181
983.161
983.13
983.089
983.038
982.975
982.903
982.819
982.723
982.617
982.5
982.368
982.224
982.071
981.901
981.705
981.501
981.294
981.031
980.723
980.474
980.173
979.644
979.221
979.027
978.268
977.215
977.034
976.592
975.188
974.209
973.876
1018.49
1018.88
1018.41
1017.77
1017.58
1016.84
1016.47
1016.22
1015.66
1015.13
1014.84
1014.55
1014.16
1013.81
1013.54
1013.26
1012.97
1012.69
1012.42
1012.16
1011.89
1011.63
1011.36
1011.1
1010.83
1010.55
1010.27
1009.98
1009.69
1009.39
1009.08
1008.76
1008.44
1008.1
1007.75
1007.4
1007.03
1006.64
1006.25
1005.84
1005.42
1004.98
1004.53
1004.06
1003.57
1003.07
1002.55
1002.02
1001.47
1000.9
1000.31
999.703
999.082
998.443
997.789
997.118
996.433
995.733
995.021
994.297
993.562
992.818
992.068
991.311
990.55
989.788
989.025
988.265
987.509
986.758
986.016
985.283
984.561
983.853
983.159
982.482
981.821
981.18
980.558
979.956
979.375
978.815
978.278
977.763
977.27
976.799
976.351
975.925
975.521
975.139
974.779
974.44
974.122
973.824
973.547
973.289
973.05
972.831
972.629
972.445
972.279
972.13
971.997
971.88
971.779
971.693
971.621
971.564
971.52
971.489
971.471
971.466
971.472
971.49
971.519
971.558
971.607
971.667
971.736
971.814
971.9
971.995
972.098
972.208
972.326
972.451
972.581
972.719
972.862
973.011
973.165
973.324
973.487
973.654
973.825
973.999
974.176
974.355
974.536
974.719
974.903
975.086
975.271
975.454
975.637
975.819
975.999
976.176
976.351
976.522
976.69
976.853
977.012
977.166
977.315
977.458
977.595
977.725
977.849
977.966
978.075
978.178
978.272
978.36
978.439
978.51
978.573
978.629
978.676
978.715
978.747
978.771
978.786
978.794
978.795
978.788
978.773
978.75
978.721
978.684
978.639
978.587
978.526
978.459
978.383
978.299
978.208
978.108
978.001
977.885
977.762
977.631
977.493
977.348
977.196
977.038
976.875
976.707
976.537
976.364
976.19
976.016
975.844
975.674
975.51
975.351
975.2
975.058
974.927
974.808
974.703
974.613
974.539
974.484
974.446
974.428
974.43
974.452
974.495
974.558
974.643
974.747
974.872
975.015
975.177
975.357
975.553
975.764
975.989
976.226
976.474
976.732
976.998
977.27
977.547
977.828
978.111
978.394
978.677
978.958
979.236
979.509
979.777
980.039
980.294
980.54
980.778
981.007
981.226
981.434
981.632
981.819
981.994
982.158
982.31
982.451
982.579
982.696
982.801
982.894
982.976
983.045
983.104
983.15
983.186
983.21
983.224
983.226
983.218
983.199
983.169
983.129
983.079
983.018
982.946
982.865
982.773
982.669
982.555
982.43
982.29
982.138
981.979
981.802
981.595
981.389
981.182
980.898
980.586
980.362
980.033
979.472
979.145
978.929
978.074
977.352
977.173
976.372
975.501
975.082
1018.22
1017.92
1017.69
1017.82
1017.19
1016.61
1016.52
1016.08
1015.57
1015.28
1014.99
1014.6
1014.25
1013.99
1013.7
1013.4
1013.11
1012.85
1012.58
1012.31
1012.05
1011.78
1011.52
1011.25
1010.97
1010.7
1010.41
1010.13
1009.83
1009.53
1009.22
1008.9
1008.57
1008.23
1007.88
1007.52
1007.15
1006.76
1006.36
1005.95
1005.52
1005.08
1004.62
1004.15
1003.66
1003.15
1002.63
1002.08
1001.52
1000.94
1000.35
999.732
999.1
998.45
997.783
997.1
996.401
995.688
994.961
994.223
993.474
992.715
991.95
991.178
990.404
989.628
988.852
988.079
987.31
986.549
985.796
985.054
984.325
983.61
982.91
982.229
981.566
980.922
980.299
979.698
979.118
978.561
978.027
977.516
977.028
976.563
976.12
975.701
975.304
974.929
974.576
974.244
973.933
973.643
973.373
973.122
972.89
972.677
972.482
972.305
972.144
972.001
971.874
971.762
971.666
971.585
971.518
971.465
971.425
971.399
971.385
971.383
971.394
971.415
971.447
971.49
971.543
971.605
971.677
971.758
971.848
971.945
972.051
972.164
972.285
972.412
972.545
972.685
972.831
972.982
973.138
973.299
973.465
973.634
973.807
973.983
974.162
974.344
974.527
974.711
974.897
975.083
975.269
975.454
975.639
975.823
976.004
976.184
976.36
976.533
976.703
976.869
977.03
977.186
977.337
977.482
977.621
977.753
977.879
977.998
978.11
978.214
978.311
978.4
978.481
978.555
978.62
978.677
978.726
978.768
978.8
978.826
978.843
978.852
978.854
978.848
978.834
978.813
978.784
978.747
978.703
978.651
978.592
978.524
978.448
978.364
978.272
978.172
978.064
977.947
977.822
977.689
977.549
977.4
977.246
977.084
976.917
976.745
976.57
976.391
976.212
976.032
975.854
975.678
975.507
975.341
975.184
975.036
974.899
974.774
974.664
974.568
974.49
974.43
974.39
974.368
974.368
974.388
974.43
974.493
974.577
974.682
974.808
974.953
975.117
975.3
975.498
975.712
975.941
976.182
976.434
976.696
976.966
977.242
977.524
977.809
978.096
978.383
978.67
978.955
979.237
979.513
979.785
980.05
980.307
980.557
980.797
981.029
981.25
981.46
981.66
981.848
982.025
982.191
982.345
982.486
982.616
982.734
982.84
982.934
983.016
983.086
983.145
983.193
983.229
983.254
983.269
983.272
983.265
983.247
983.219
983.181
983.132
983.074
983.005
982.927
982.838
982.739
982.629
982.509
982.381
982.236
982.078
981.92
981.742
981.526
981.323
981.132
980.84
980.516
980.333
980.029
979.454
979.145
978.972
978.305
977.621
977.359
976.959
976.054
1017.77
1017.57
1017.45
1017.26
1016.87
1016.73
1016.32
1015.88
1015.67
1015.37
1014.97
1014.66
1014.41
1014.12
1013.8
1013.53
1013.28
1013.01
1012.73
1012.47
1012.21
1011.95
1011.68
1011.41
1011.14
1010.86
1010.58
1010.29
1009.99
1009.69
1009.38
1009.06
1008.72
1008.38
1008.03
1007.67
1007.29
1006.9
1006.5
1006.09
1005.65
1005.21
1004.74
1004.26
1003.77
1003.25
1002.72
1002.17
1001.6
1001.01
1000.4
999.773
999.127
998.464
997.782
997.084
996.37
995.641
994.898
994.142
993.375
992.599
991.816
991.027
990.235
989.442
988.65
987.862
987.079
986.304
985.539
984.786
984.046
983.323
982.617
981.93
981.263
980.617
979.993
979.392
978.814
978.259
977.729
977.222
976.74
976.281
975.845
975.433
975.044
974.677
974.332
974.008
973.706
973.424
973.161
972.919
972.694
972.489
972.301
972.131
971.978
971.841
971.72
971.615
971.525
971.449
971.388
971.34
971.306
971.284
971.275
971.278
971.293
971.318
971.355
971.401
971.459
971.525
971.601
971.686
971.779
971.88
971.989
972.106
972.23
972.36
972.497
972.64
972.789
972.943
973.102
973.266
973.434
973.606
973.781
973.96
974.141
974.325
974.51
974.697
974.885
975.073
975.261
975.448
975.635
975.821
976.005
976.186
976.364
976.539
976.711
976.879
977.042
977.2
977.353
977.5
977.641
977.776
977.904
978.025
978.139
978.246
978.345
978.437
978.52
978.596
978.663
978.723
978.774
978.817
978.852
978.879
978.898
978.909
978.913
978.908
978.895
978.875
978.847
978.812
978.768
978.716
978.657
978.59
978.514
978.429
978.337
978.236
978.126
978.008
977.881
977.745
977.602
977.451
977.292
977.126
976.955
976.778
976.597
976.413
976.228
976.042
975.857
975.675
975.497
975.325
975.161
975.006
974.863
974.733
974.617
974.517
974.435
974.371
974.327
974.303
974.301
974.319
974.361
974.423
974.508
974.614
974.742
974.889
975.056
975.241
975.443
975.661
975.893
976.139
976.396
976.662
976.936
977.217
977.504
977.793
978.085
978.377
978.668
978.957
979.242
979.523
979.798
980.066
980.327
980.58
980.823
981.057
981.281
981.493
981.695
981.885
982.064
982.231
982.386
982.529
982.66
982.779
982.886
982.981
983.064
983.136
983.196
983.244
983.282
983.308
983.324
983.329
983.323
983.307
983.281
983.245
983.199
983.144
983.079
983.004
982.92
982.828
982.725
982.611
982.49
982.362
982.215
982.059
981.908
981.733
981.519
981.334
981.159
980.868
980.581
980.432
980.121
979.654
979.42
979.154
978.634
978.252
977.899
977.264
1017.25
1017.29
1017.19
1016.85
1016.74
1016.56
1016.14
1015.91
1015.66
1015.31
1015.02
1014.78
1014.49
1014.19
1013.93
1013.68
1013.41
1013.14
1012.89
1012.64
1012.37
1012.11
1011.85
1011.58
1011.31
1011.03
1010.75
1010.46
1010.17
1009.86
1009.55
1009.23
1008.9
1008.56
1008.2
1007.84
1007.46
1007.07
1006.66
1006.24
1005.8
1005.35
1004.88
1004.4
1003.89
1003.37
1002.83
1002.27
1001.69
1001.09
1000.46
999.825
999.165
998.486
997.788
997.072
996.34
995.592
994.829
994.053
993.266
992.47
991.666
990.857
990.045
989.232
988.421
987.615
986.815
986.024
985.245
984.479
983.728
982.995
982.281
981.587
980.916
980.267
979.641
979.04
978.464
977.912
977.386
976.884
976.408
975.956
975.528
975.124
974.743
974.385
974.049
973.735
973.441
973.168
972.915
972.681
972.466
972.269
972.09
971.928
971.782
971.653
971.539
971.441
971.357
971.288
971.232
971.191
971.162
971.146
971.142
971.15
971.17
971.201
971.242
971.294
971.356
971.427
971.507
971.597
971.694
971.8
971.913
972.034
972.162
972.296
972.437
972.584
972.736
972.894
973.057
973.224
973.395
973.57
973.749
973.93
974.114
974.3
974.488
974.677
974.867
975.058
975.248
975.437
975.626
975.814
975.999
976.182
976.363
976.539
976.713
976.882
977.047
977.207
977.362
977.511
977.654
977.791
977.921
978.044
978.161
978.27
978.372
978.466
978.552
978.63
978.7
978.762
978.815
978.861
978.898
978.928
978.949
978.962
978.967
978.964
978.953
978.935
978.908
978.873
978.83
978.779
978.72
978.652
978.576
978.492
978.398
978.296
978.184
978.064
977.935
977.797
977.651
977.496
977.333
977.164
976.987
976.805
976.619
976.43
976.238
976.046
975.854
975.665
975.481
975.303
975.133
974.972
974.823
974.687
974.566
974.462
974.375
974.308
974.261
974.235
974.231
974.249
974.29
974.353
974.439
974.547
974.676
974.826
974.996
975.185
975.391
975.613
975.849
976.099
976.36
976.632
976.911
977.197
977.488
977.783
978.079
978.376
978.672
978.965
979.254
979.539
979.817
980.089
980.353
980.609
980.855
981.092
981.317
981.532
981.736
981.929
982.109
982.278
982.435
982.579
982.711
982.831
982.94
983.036
983.12
983.193
983.254
983.304
983.343
983.371
983.388
983.395
983.392
983.378
983.355
983.322
983.28
983.228
983.168
983.099
983.021
982.934
982.841
982.738
982.624
982.507
982.384
982.242
982.092
981.958
981.796
981.591
981.435
981.292
981.021
980.775
980.669
980.416
980.038
979.848
979.659
979.271
978.931
978.527
1016.97
1016.97
1016.86
1016.72
1016.58
1016.28
1016.1
1015.9
1015.57
1015.31
1015.1
1014.82
1014.54
1014.3
1014.06
1013.79
1013.53
1013.29
1013.04
1012.79
1012.53
1012.28
1012.02
1011.75
1011.48
1011.21
1010.93
1010.64
1010.35
1010.05
1009.74
1009.42
1009.08
1008.74
1008.39
1008.02
1007.64
1007.25
1006.84
1006.41
1005.97
1005.52
1005.04
1004.55
1004.04
1003.51
1002.95
1002.38
1001.79
1001.18
1000.54
999.887
999.211
998.515
997.799
997.064
996.311
995.542
994.757
993.959
993.149
992.329
991.501
990.669
989.834
988.998
988.166
987.339
986.52
985.711
984.915
984.134
983.37
982.626
981.903
981.202
980.525
979.872
979.245
978.644
978.07
977.521
976.999
976.504
976.034
975.59
975.171
974.776
974.405
974.057
973.731
973.427
973.144
972.881
972.638
972.414
972.208
972.021
971.85
971.697
971.56
971.438
971.333
971.241
971.165
971.102
971.054
971.018
970.996
970.986
970.988
971.003
971.028
971.064
971.111
971.168
971.235
971.312
971.397
971.492
971.595
971.705
971.823
971.949
972.082
972.221
972.366
972.517
972.674
972.836
973.003
973.174
973.349
973.528
973.71
973.894
974.081
974.271
974.461
974.653
974.845
975.038
975.23
975.422
975.612
975.801
975.988
976.173
976.355
976.533
976.708
976.879
977.046
977.207
977.363
977.514
977.658
977.797
977.929
978.054
978.173
978.284
978.388
978.484
978.572
978.653
978.726
978.79
978.847
978.895
978.935
978.967
978.991
979.006
979.014
979.013
979.004
978.987
978.961
978.928
978.886
978.835
978.776
978.709
978.633
978.547
978.453
978.349
978.237
978.114
977.983
977.842
977.693
977.535
977.368
977.194
977.013
976.826
976.635
976.439
976.242
976.044
975.846
975.651
975.461
975.277
975.101
974.935
974.78
974.639
974.514
974.406
974.316
974.246
974.196
974.169
974.164
974.181
974.222
974.286
974.373
974.483
974.615
974.768
974.941
975.133
975.344
975.57
975.811
976.066
976.332
976.608
976.892
977.184
977.48
977.779
978.08
978.381
978.681
978.979
979.273
979.561
979.843
980.118
980.386
980.644
980.893
981.132
981.361
981.578
981.784
981.978
982.161
982.331
982.489
982.635
982.769
982.891
983
983.098
983.183
983.258
983.32
983.372
983.413
983.443
983.462
983.471
983.471
983.46
983.44
983.411
983.374
983.327
983.272
983.21
983.14
983.062
982.976
982.886
982.788
982.679
982.572
982.461
982.33
982.198
982.088
981.947
981.771
981.656
981.542
981.328
981.159
981.073
980.883
980.667
980.519
980.33
980.149
979.788
1016.76
1016.7
1016.62
1016.57
1016.38
1016.18
1016.04
1015.79
1015.55
1015.36
1015.1
1014.85
1014.63
1014.39
1014.14
1013.9
1013.67
1013.43
1013.18
1012.93
1012.69
1012.44
1012.18
1011.93
1011.66
1011.39
1011.12
1010.83
1010.54
1010.24
1009.93
1009.61
1009.28
1008.94
1008.58
1008.22
1007.83
1007.44
1007.03
1006.6
1006.16
1005.69
1005.21
1004.71
1004.2
1003.66
1003.09
1002.51
1001.91
1001.28
1000.63
999.96
999.266
998.551
997.815
997.059
996.284
995.491
994.681
993.858
993.022
992.176
991.322
990.463
989.602
988.742
987.885
987.034
986.193
985.363
984.549
983.751
982.973
982.216
981.482
980.774
980.091
979.435
978.807
978.206
977.633
977.089
976.572
976.083
975.622
975.186
974.776
974.392
974.031
973.695
973.38
973.087
972.815
972.564
972.331
972.118
971.923
971.746
971.585
971.441
971.313
971.2
971.103
971.02
970.951
970.896
970.854
970.826
970.81
970.807
970.816
970.836
970.868
970.91
970.963
971.026
971.099
971.181
971.273
971.373
971.481
971.597
971.721
971.853
971.991
972.135
972.285
972.442
972.604
972.77
972.942
973.117
973.297
973.48
973.665
973.854
974.044
974.237
974.43
974.625
974.819
975.014
975.208
975.402
975.594
975.785
975.973
976.159
976.342
976.522
976.698
976.87
977.037
977.199
977.356
977.508
977.653
977.793
977.926
978.053
978.173
978.286
978.392
978.49
978.58
978.663
978.738
978.805
978.865
978.915
978.958
978.993
979.02
979.037
979.048
979.049
979.042
979.027
979.003
978.972
978.931
978.882
978.823
978.756
978.68
978.594
978.499
978.394
978.28
978.156
978.022
977.879
977.726
977.565
977.395
977.217
977.032
976.841
976.644
976.444
976.241
976.037
975.835
975.634
975.438
975.249
975.068
974.897
974.738
974.593
974.464
974.352
974.26
974.187
974.137
974.107
974.102
974.12
974.161
974.226
974.315
974.427
974.562
974.718
974.894
975.09
975.305
975.536
975.782
976.041
976.312
976.593
976.882
977.179
977.479
977.783
978.089
978.395
978.699
979
979.298
979.59
979.876
980.155
980.425
980.686
980.938
981.18
981.41
981.63
981.838
982.034
982.218
982.39
982.55
982.697
982.833
982.956
983.067
983.166
983.253
983.329
983.394
983.448
983.49
983.523
983.545
983.557
983.56
983.553
983.537
983.513
983.481
983.441
983.393
983.338
983.277
983.21
983.135
983.056
982.975
982.886
982.789
982.698
982.609
982.496
982.392
982.318
982.209
982.077
982.015
981.95
981.807
981.719
981.694
981.598
981.483
981.415
981.368
981.115
1016.54
1016.52
1016.47
1016.37
1016.23
1016.12
1015.93
1015.72
1015.56
1015.35
1015.11
1014.91
1014.69
1014.46
1014.23
1014.01
1013.78
1013.55
1013.32
1013.08
1012.84
1012.6
1012.35
1012.1
1011.84
1011.57
1011.3
1011.02
1010.73
1010.43
1010.13
1009.81
1009.48
1009.14
1008.79
1008.42
1008.04
1007.64
1007.23
1006.8
1006.35
1005.89
1005.4
1004.89
1004.37
1003.82
1003.25
1002.65
1002.04
1001.39
1000.73
1000.04
999.329
998.594
997.836
997.057
996.257
995.438
994.602
993.751
992.886
992.011
991.128
990.24
989.35
988.461
987.577
986.7
985.834
984.981
984.146
983.33
982.535
981.765
981.02
980.302
979.614
978.954
978.324
977.724
977.154
976.615
976.105
975.623
975.171
974.745
974.346
973.973
973.625
973.3
972.998
972.718
972.458
972.219
971.999
971.797
971.614
971.447
971.297
971.163
971.044
970.941
970.852
970.778
970.717
970.67
970.636
970.615
970.606
970.61
970.625
970.652
970.69
970.74
970.799
970.868
970.947
971.036
971.134
971.24
971.355
971.477
971.608
971.745
971.889
972.039
972.196
972.358
972.526
972.698
972.875
973.055
973.24
973.427
973.617
973.809
974.004
974.2
974.396
974.594
974.791
974.988
975.185
975.38
975.574
975.766
975.955
976.142
976.326
976.506
976.682
976.854
977.022
977.184
977.342
977.494
977.64
977.78
977.913
978.041
978.162
978.275
978.383
978.482
978.574
978.659
978.736
978.805
978.866
978.92
978.965
979.003
979.032
979.053
979.066
979.07
979.065
979.053