# vtk DataFile Version 2.0
LBE mesh
ASCII
DATASET STRUCTURED_POINTS
DIMENSIONS 300 100 1
ASPECT_RATIO 1 1 1
ORIGIN 0 0 0
POINT_DATA 30000
SCALARS rho double 1
LOOKUP_TABLE default
1046.37
1014.6
1013.85
1020.31
1018.45
1014.5
1014.27
1014.76
1013.95
1013.13
1012.93
1012.73
1012.32
1011.98
1011.75
1011.5
1011.22
1010.96
1010.72
1010.47
1010.22
1009.97
1009.72
1009.47
1009.21
1008.94
1008.67
1008.4
1008.12
1007.82
1007.53
1007.22
1006.9
1006.57
1006.23
1005.88
1005.51
1005.13
1004.74
1004.34
1003.91
1003.48
1003.03
1002.56
1002.07
1001.57
1001.05
1000.52
999.966
999.396
998.809
998.205
997.584
996.947
996.294
995.626
994.944
994.249
993.541
992.823
992.095
991.359
990.617
989.869
989.119
988.367
987.616
986.867
986.123
985.385
984.656
983.938
983.231
982.538
981.861
981.201
980.56
979.938
979.338
978.761
978.206
977.674
977.168
976.686
976.229
975.798
975.393
975.012
974.657
974.327
974.021
973.74
973.483
973.249
973.037
972.848
972.681
972.535
972.409
972.304
972.217
972.149
972.099
972.066
972.05
972.051
972.067
972.098
972.144
972.204
972.278
972.365
972.464
972.576
972.699
972.834
972.981
973.137
973.304
973.48
973.666
973.861
974.065
974.277
974.496
974.723
974.957
975.197
975.444
975.696
975.954
976.216
976.482
976.752
977.026
977.302
977.58
977.86
978.14
978.421
978.701
978.98
979.258
979.534
979.807
980.076
980.341
980.601
980.856
981.105
981.348
981.583
981.811
982.03
982.241
982.443
982.636
982.819
982.992
983.155
983.307
983.448
983.579
983.698
983.806
983.903
983.989
984.063
984.126
984.178
984.219
984.249
984.267
984.274
984.269
984.253
984.224
984.183
984.129
984.062
983.981
983.886
983.777
983.654
983.515
983.361
983.191
983.006
982.807
982.594
982.367
982.128
981.878
981.618
981.35
981.076
980.798
980.519
980.24
979.965
979.696
979.436
979.188
978.955
978.74
978.544
978.371
978.222
978.1
978.006
977.94
977.906
977.902
977.93
977.988
978.076
978.194
978.34
978.513
978.711
978.932
979.175
979.436
979.714
980.005
980.307
980.619
980.937
981.259
981.584
981.908
982.23
982.549
982.861
983.167
983.465
983.754
984.032
984.3
984.556
984.8
985.033
985.254
985.464
985.662
985.849
986.026
986.193
986.351
986.501
986.644
986.78
986.911
987.037
987.159
987.278
987.394
987.509
987.622
987.734
987.846
987.958
988.069
988.18
988.29
988.4
988.509
988.616
988.721
988.823
988.922
989.016
989.104
989.185
989.259
989.324
989.378
989.422
989.45
989.466
989.466
989.445
989.403
989.348
989.262
989.129
988.987
988.839
988.57
988.215
988.012
987.675
986.727
986.108
986.363
984.442
980.539
982.711
983.644
959.167
1029.23
1025.65
1021.53
1016.29
1016.45
1016.58
1015.38
1014.19
1013.92
1013.64
1013.13
1012.7
1012.43
1012.14
1011.82
1011.54
1011.29
1011.03
1010.76
1010.51
1010.26
1010
1009.74
1009.49
1009.22
1008.96
1008.68
1008.4
1008.12
1007.82
1007.52
1007.21
1006.89
1006.56
1006.21
1005.86
1005.49
1005.11
1004.72
1004.31
1003.89
1003.45
1002.99
1002.52
1002.04
1001.54
1001.02
1000.48
999.925
999.354
998.766
998.161
997.54
996.902
996.249
995.582
994.9
994.205
993.499
992.781
992.055
991.32
990.579
989.834
989.085
988.336
987.587
986.841
986.1
985.365
984.639
983.924
983.22
982.531
981.858
981.201
980.563
979.945
979.348
978.774
978.222
977.694
977.19
976.711
976.257
975.828
975.425
975.047
974.694
974.365
974.062
973.782
973.526
973.293
973.083
972.894
972.728
972.582
972.457
972.352
972.265
972.197
972.148
972.115
972.099
972.099
972.115
972.146
972.192
972.251
972.324
972.411
972.509
972.621
972.743
972.877
973.023
973.178
973.344
973.52
973.705
973.899
974.101
974.311
974.53
974.756
974.988
975.227
975.473
975.724
975.981
976.241
976.507
976.776
977.048
977.323
977.6
977.879
978.158
978.438
978.718
978.996
979.273
979.548
979.82
980.089
980.353
980.613
980.868
981.116
981.358
981.593
981.821
982.04
982.251
982.453
982.646
982.829
983.001
983.164
983.316
983.457
983.587
983.707
983.815
983.912
983.997
984.071
984.135
984.186
984.227
984.256
984.274
984.281
984.276
984.259
984.23
984.189
984.135
984.069
983.989
983.895
983.787
983.664
983.527
983.375
983.207
983.025
982.828
982.617
982.393
982.156
981.908
981.651
981.385
981.113
980.837
980.559
980.281
980.007
979.738
979.479
979.23
978.997
978.78
978.582
978.407
978.255
978.13
978.033
977.965
977.927
977.919
977.943
977.997
978.081
978.195
978.338
978.507
978.702
978.919
979.159
979.417
979.691
979.98
980.281
980.59
980.907
981.228
981.551
981.875
982.197
982.515
982.828
983.134
983.433
983.722
984.001
984.27
984.527
984.773
985.007
985.23
985.441
985.64
985.829
986.007
986.176
986.336
986.487
986.631
986.768
986.899
987.026
987.149
987.268
987.384
987.498
987.612
987.724
987.835
987.946
988.056
988.166
988.276
988.385
988.492
988.599
988.702
988.803
988.9
988.993
989.08
989.16
989.232
989.295
989.347
989.388
989.416
989.428
989.423
989.402
989.358
989.288
989.198
989.083
988.915
988.707
988.501
988.209
987.756
987.345
986.991
986.072
984.838
984.432
983.306
979.054
975.182
973.092
1021.11
1025.91
1021.2
1016.87
1017.09
1016.78
1015.36
1014.39
1014.16
1013.78
1013.23
1012.82
1012.54
1012.23
1011.9
1011.62
1011.35
1011.08
1010.82
1010.56
1010.3
1010.04
1009.78
1009.52
1009.25
1008.98
1008.7
1008.42
1008.13
1007.84
1007.53
1007.22
1006.89
1006.56
1006.21
1005.86
1005.49
1005.11
1004.71
1004.3
1003.88
1003.44
1002.98
1002.51
1002.02
1001.52
1001
1000.46
999.901
999.329
998.739
998.133
997.51
996.871
996.217
995.548
994.865
994.169
993.462
992.744
992.016
991.281
990.54
989.794
989.046
988.297
987.548
986.803
986.063
985.329
984.604
983.89
983.188
982.5
981.829
981.174
980.539
979.923
979.328
978.756
978.208
977.682
977.181
976.705
976.253
975.827
975.426
975.051
974.7
974.374
974.072
973.794
973.54
973.309
973.101
972.914
972.749
972.605
972.481
972.377
972.291
972.224
972.175
972.143
972.128
972.128
972.144
972.175
972.221
972.281
972.354
972.44
972.539
972.65
972.772
972.906
973.051
973.206
973.371
973.547
973.731
973.924
974.126
974.336
974.554
974.779
975.011
975.25
975.494
975.745
976.001
976.261
976.526
976.795
977.066
977.341
977.617
977.895
978.175
978.454
978.733
979.012
979.289
979.563
979.836
980.104
980.369
980.628
980.883
981.132
981.374
981.61
981.837
982.057
982.268
982.47
982.663
982.846
983.019
983.182
983.334
983.475
983.605
983.725
983.833
983.93
984.015
984.089
984.152
984.204
984.244
984.273
984.291
984.297
984.292
984.276
984.247
984.206
984.153
984.087
984.009
983.916
983.809
983.688
983.552
983.402
983.236
983.056
982.861
982.651
982.428
982.193
981.946
981.689
981.424
981.152
980.875
980.596
980.317
980.04
979.769
979.507
979.255
979.018
978.797
978.596
978.416
978.261
978.131
978.029
977.957
977.915
977.904
977.923
977.974
978.055
978.167
978.307
978.474
978.667
978.883
979.122
979.379
979.653
979.942
980.242
980.553
980.87
981.192
981.517
981.841
982.164
982.484
982.799
983.107
983.407
983.698
983.979
984.249
984.508
984.756
984.991
985.215
985.428
985.628
985.818
985.997
986.167
986.327
986.479
986.623
986.76
986.892
987.018
987.141
987.259
987.375
987.489
987.602
987.713
987.824
987.934
988.044
988.153
988.262
988.37
988.478
988.583
988.686
988.787
988.883
988.976
989.062
989.142
989.213
989.276
989.328
989.368
989.395
989.407
989.4
989.377
989.336
989.263
989.162
989.054
988.9
988.659
988.432
988.229
987.762
987.149
986.976
986.471
984.576
983.832
984.879
980.493
974.705
978.957
1020.84
1019.55
1018.98
1020.14
1017.61
1015.48
1015.41
1015.3
1014.37
1013.64
1013.38
1013.09
1012.65
1012.29
1012.01
1011.73
1011.43
1011.15
1010.89
1010.63
1010.36
1010.1
1009.83
1009.57
1009.3
1009.02
1008.74
1008.46
1008.17
1007.87
1007.56
1007.24
1006.92
1006.58
1006.24
1005.88
1005.51
1005.12
1004.72
1004.31
1003.89
1003.44
1002.99
1002.51
1002.02
1001.52
1000.99
1000.45
999.894
999.319
998.727
998.117
997.492
996.85
996.193
995.521
994.835
994.136
993.426
992.705
991.974
991.236
990.492
989.744
988.993
988.241
987.491
986.743
986.001
985.266
984.54
983.826
983.124
982.436
981.765
981.111
980.476
979.862
979.27
978.699
978.153
977.63
977.131
976.658
976.21
975.786
975.388
975.016
974.668
974.345
974.046
973.771
973.52
973.292
973.086
972.902
972.74
972.597
972.475
972.373
972.289
972.224
972.177
972.146
972.132
972.134
972.151
972.183
972.23
972.29
972.364
972.451
972.55
972.662
972.785
972.919
973.064
973.22
973.385
973.561
973.745
973.939
974.14
974.35
974.568
974.794
975.026
975.264
975.509
975.759
976.015
976.276
976.54
976.809
977.081
977.356
977.632
977.911
978.19
978.47
978.75
979.028
979.306
979.581
979.853
980.122
980.388
980.648
980.903
981.153
981.396
981.632
981.86
982.08
982.292
982.495
982.688
982.872
983.045
983.208
983.361
983.502
983.633
983.752
983.86
983.957
984.042
984.116
984.179
984.23
984.271
984.3
984.317
984.324
984.319
984.302
984.274
984.234
984.182
984.117
984.039
983.948
983.843
983.723
983.589
983.44
983.276
983.096
982.902
982.694
982.471
982.235
981.988
981.73
981.462
981.188
980.908
980.626
980.342
980.062
979.786
979.517
979.26
979.017
978.79
978.583
978.397
978.236
978.101
977.994
977.917
977.87
977.855
977.872
977.92
978
978.11
978.249
978.416
978.609
978.826
979.065
979.324
979.6
979.891
980.194
980.506
980.826
981.151
981.479
981.806
982.133
982.455
982.772
983.083
983.386
983.68
983.963
984.236
984.497
984.746
984.983
985.209
985.422
985.624
985.814
985.994
986.164
986.324
986.475
986.619
986.756
986.887
987.013
987.134
987.252
987.367
987.481
987.592
987.703
987.813
987.922
988.032
988.141
988.25
988.358
988.465
988.57
988.674
988.775
988.872
988.965
989.052
989.133
989.205
989.268
989.321
989.362
989.39
989.403
989.4
989.375
989.331
989.271
989.175
989.04
988.902
988.733
988.441
988.134
987.929
987.462
986.645
986.321
986.047
984.194
982.632
982.86
981.99
980.059
1020.83
1018.63
1018.53
1018.4
1016.89
1016.45
1015.86
1014.99
1014.35
1014.03
1013.62
1013.14
1012.76
1012.46
1012.15
1011.83
1011.54
1011.26
1010.99
1010.72
1010.45
1010.18
1009.91
1009.64
1009.37
1009.09
1008.81
1008.52
1008.23
1007.93
1007.62
1007.3
1006.97
1006.63
1006.28
1005.92
1005.55
1005.16
1004.76
1004.35
1003.92
1003.48
1003.02
1002.54
1002.05
1001.54
1001.01
1000.47
999.903
999.324
998.728
998.114
997.484
996.838
996.176
995.498
994.807
994.103
993.387
992.66
991.924
991.18
990.43
989.676
988.92
988.163
987.408
986.656
985.91
985.171
984.442
983.724
983.02
982.331
981.658
981.004
980.369
979.755
979.164
978.595
978.05
977.53
977.034
976.564
976.118
975.699
975.304
974.936
974.592
974.273
973.978
973.707
973.46
973.235
973.033
972.853
972.694
972.555
972.436
972.337
972.256
972.194
972.149
972.121
972.109
972.113
972.132
972.167
972.215
972.277
972.353
972.441
972.542
972.655
972.78
972.915
973.062
973.218
973.385
973.561
973.747
973.941
974.144
974.355
974.574
974.8
975.033
975.272
975.517
975.769
976.025
976.286
976.552
976.821
977.094
977.369
977.647
977.926
978.206
978.487
978.767
979.047
979.325
979.601
979.875
980.145
980.411
980.672
980.928
981.179
981.422
981.66
981.889
982.11
982.323
982.526
982.72
982.905
983.079
983.242
983.395
983.537
983.668
983.787
983.896
983.993
984.078
984.152
984.215
984.266
984.306
984.335
984.353
984.359
984.355
984.338
984.311
984.271
984.22
984.156
984.079
983.989
983.885
983.767
983.634
983.486
983.322
983.143
982.95
982.74
982.517
982.279
982.03
981.769
981.497
981.218
980.933
980.645
980.355
980.067
979.784
979.508
979.243
978.992
978.758
978.543
978.349
978.181
978.04
977.928
977.846
977.795
977.777
977.791
977.837
977.916
978.026
978.166
978.334
978.529
978.748
978.99
979.253
979.532
979.827
980.134
980.451
980.775
981.105
981.437
981.769
982.099
982.426
982.747
983.062
983.368
983.665
983.951
984.226
984.49
984.741
984.98
985.207
985.422
985.624
985.815
985.995
986.164
986.324
986.475
986.618
986.754
986.884
987.009
987.129
987.246
987.36
987.472
987.583
987.693
987.802
987.912
988.021
988.13
988.239
988.348
988.455
988.562
988.667
988.769
988.868
988.962
989.051
989.133
989.208
989.274
989.329
989.373
989.404
989.419
989.42
989.402
989.358
989.299
989.224
989.099
988.937
988.799
988.594
988.225
987.947
987.784
987.097
986.256
986.358
985.716
983.547
983.415
983.639
981.817
1018.74
1018.74
1018.3
1016.8
1016.91
1016.74
1015.54
1014.89
1014.7
1014.25
1013.64
1013.26
1012.98
1012.63
1012.27
1011.96
1011.69
1011.4
1011.11
1010.84
1010.57
1010.29
1010.02
1009.75
1009.47
1009.19
1008.9
1008.61
1008.32
1008.01
1007.7
1007.38
1007.05
1006.71
1006.36
1005.99
1005.62
1005.23
1004.83
1004.41
1003.98
1003.53
1003.07
1002.59
1002.09
1001.58
1001.05
1000.5
999.93
999.346
998.743
998.124
997.487
996.833
996.164
995.479
994.78
994.068
993.343
992.608
991.863
991.111
990.352
989.589
988.825
988.06
987.297
986.538
985.784
985.04
984.305
983.582
982.873
982.18
981.505
980.849
980.213
979.599
979.008
978.44
977.897
977.378
976.885
976.418
975.977
975.561
975.171
974.807
974.468
974.154
973.864
973.598
973.356
973.136
972.939
972.763
972.609
972.475
972.36
972.265
972.188
972.13
972.088
972.064
972.055
972.063
972.086
972.123
972.175
972.24
972.318
972.409
972.513
972.628
972.755
972.893
973.042
973.201
973.37
973.548
973.736
973.932
974.137
974.35
974.57
974.798
975.033
975.274
975.521
975.774
976.032
976.295
976.561
976.832
977.107
977.383
977.662
977.942
978.224
978.506
978.788
979.069
979.348
979.625
979.9
980.171
980.438
980.701
980.958
981.21
981.455
981.693
981.923
982.145
982.359
982.563
982.758
982.943
983.118
983.283
983.436
983.579
983.71
983.829
983.938
984.035
984.12
984.195
984.257
984.309
984.349
984.378
984.396
984.403
984.398
984.382
984.354
984.316
984.265
984.202
984.126
984.037
983.934
983.816
983.684
983.536
983.372
983.193
982.998
982.788
982.562
982.321
982.068
981.802
981.525
981.239
980.947
980.651
980.352
980.056
979.763
979.478
979.203
978.943
978.699
978.476
978.274
978.099
977.951
977.833
977.747
977.693
977.672
977.684
977.73
977.809
977.92
978.061
978.232
978.43
978.654
978.9
979.167
979.452
979.752
980.065
980.388
980.718
981.053
981.39
981.728
982.063
982.395
982.722
983.04
983.351
983.652
983.942
984.22
984.486
984.74
984.981
985.209
985.424
985.627
985.818
985.998
986.167
986.326
986.476
986.618
986.753
986.882
987.005
987.124
987.24
987.353
987.464
987.574
987.684
987.793
987.902
988.011
988.121
988.231
988.341
988.45
988.559
988.666
988.77
988.871
988.968
989.06
989.146
989.224
989.294
989.353
989.401
989.438
989.459
989.462
989.454
989.425
989.364
989.29
989.209
989.066
988.871
988.734
988.544
988.116
987.8
987.731
987.078
986.147
986.151
985.906
984.7
984.007
984.101
1017.69
1018.06
1017.57
1016.9
1016.69
1015.93
1015.53
1015.26
1014.68
1014.13
1013.82
1013.51
1013.1
1012.73
1012.43
1012.14
1011.83
1011.54
1011.26
1010.98
1010.7
1010.43
1010.15
1009.88
1009.6
1009.31
1009.03
1008.73
1008.44
1008.13
1007.81
1007.49
1007.16
1006.82
1006.46
1006.1
1005.72
1005.33
1004.92
1004.5
1004.06
1003.61
1003.15
1002.66
1002.16
1001.64
1001.1
1000.55
999.975
999.383
998.773
998.146
997.5
996.837
996.158
995.463
994.754
994.03
993.295
992.547
991.791
991.027
990.257
989.483
988.707
987.93
987.157
986.388
985.625
984.871
984.128
983.398
982.683
981.985
981.305
980.646
980.008
979.392
978.801
978.234
977.692
977.175
976.685
976.221
975.783
975.372
974.987
974.629
974.295
973.987
973.703
973.443
973.206
972.993
972.802
972.632
972.483
972.354
972.245
972.155
972.084
972.03
971.994
971.974
971.971
971.982
972.01
972.051
972.107
972.176
972.259
972.354
972.461
972.58
972.711
972.852
973.005
973.167
973.34
973.521
973.713
973.912
974.12
974.336
974.56
974.791
975.028
975.272
975.522
975.777
976.037
976.302
976.572
976.844
977.121
977.399
977.68
977.962
978.245
978.528
978.812
979.094
979.375
979.654
979.929
980.202
980.47
980.734
980.993
981.245
981.491
981.73
981.961
982.185
982.399
982.604
982.8
982.986
983.161
983.326
983.48
983.623
983.755
983.875
983.984
984.081
984.167
984.242
984.304
984.356
984.396
984.425
984.443
984.45
984.445
984.43
984.403
984.364
984.314
984.251
984.176
984.087
983.984
983.867
983.734
983.586
983.422
983.242
983.045
982.831
982.602
982.357
982.098
981.825
981.541
981.248
980.947
980.641
980.333
980.026
979.723
979.427
979.142
978.871
978.617
978.384
978.175
977.992
977.838
977.715
977.624
977.567
977.544
977.555
977.601
977.681
977.794
977.939
978.114
978.316
978.545
978.797
979.07
979.361
979.668
979.987
980.317
980.654
980.996
981.339
981.683
982.025
982.362
982.694
983.018
983.333
983.638
983.932
984.213
984.482
984.738
984.981
985.21
985.427
985.63
985.822
986.001
986.17
986.328
986.477
986.618
986.751
986.879
987.001
987.118
987.233
987.345
987.456
987.565
987.675
987.784
987.894
988.004
988.115
988.227
988.338
988.45
988.561
988.671
988.779
988.883
988.984
989.081
989.171
989.254
989.329
989.395
989.448
989.491
989.522
989.534
989.53
989.515
989.477
989.404
989.327
989.246
989.082
988.884
988.782
988.571
988.117
987.927
987.865
987.144
986.599
986.671
986.122
985.563
985.6
1017.42
1017.1
1016.85
1016.95
1016.3
1015.69
1015.58
1015.12
1014.59
1014.27
1013.96
1013.55
1013.19
1012.9
1012.6
1012.27
1011.98
1011.7
1011.42
1011.14
1010.86
1010.58
1010.31
1010.03
1009.75
1009.46
1009.18
1008.88
1008.58
1008.27
1007.96
1007.63
1007.3
1006.95
1006.59
1006.23
1005.84
1005.45
1005.04
1004.62
1004.18
1003.72
1003.25
1002.76
1002.25
1001.73
1001.18
1000.62
1000.04
999.437
998.818
998.18
997.523
996.849
996.158
995.451
994.728
993.991
993.241
992.48
991.709
990.93
990.146
989.357
988.566
987.776
986.989
986.207
985.432
984.666
983.913
983.174
982.451
981.746
981.06
980.396
979.754
979.136
978.544
977.976
977.436
976.921
976.434
975.973
975.541
975.134
974.755
974.402
974.075
973.773
973.496
973.243
973.014
972.807
972.622
972.459
972.317
972.195
972.093
972.009
971.944
971.896
971.865
971.851
971.853
971.871
971.903
971.95
972.011
972.086
972.173
972.273
972.386
972.51
972.646
972.792
972.95
973.117
973.295
973.481
973.677
973.881
974.094
974.314
974.542
974.776
975.018
975.266
975.519
975.778
976.042
976.31
976.583
976.858
977.137
977.418
977.701
977.985
978.27
978.556
978.84
979.125
979.407
979.687
979.964
980.238
980.507
980.771
981.031
981.284
981.531
981.77
982.002
982.226
982.441
982.646
982.843
983.029
983.205
983.37
983.525
983.668
983.8
983.921
984.03
984.128
984.214
984.288
984.352
984.404
984.444
984.473
984.491
984.498
984.494
984.478
984.451
984.413
984.363
984.3
984.224
984.136
984.033
983.915
983.781
983.632
983.466
983.283
983.084
982.867
982.632
982.382
982.117
981.837
981.545
981.242
980.931
980.615
980.296
979.977
979.663
979.355
979.059
978.778
978.514
978.273
978.055
977.865
977.705
977.576
977.482
977.422
977.398
977.409
977.456
977.538
977.654
977.802
977.982
978.19
978.424
978.683
978.962
979.261
979.575
979.902
980.239
980.584
980.933
981.284
981.634
981.982
982.326
982.664
982.993
983.313
983.622
983.92
984.205
984.476
984.735
984.979
985.21
985.427
985.632
985.823
986.002
986.17
986.327
986.475
986.615
986.747
986.873
986.994
987.111
987.225
987.336
987.446
987.556
987.666
987.776
987.887
987.999
988.112
988.225
988.34
988.455
988.57
988.683
988.796
988.905
989.011
989.113
989.21
989.299
989.381
989.454
989.517
989.568
989.607
989.634
989.641
989.631
989.617
989.578
989.495
989.422
989.36
989.191
988.989
988.938
988.766
988.323
988.181
988.195
987.722
987.281
987.314
987.259
986.818
1016.97
1016.74
1016.6
1016.38
1015.97
1015.81
1015.38
1014.91
1014.68
1014.36
1013.94
1013.61
1013.34
1013.03
1012.7
1012.41
1012.14
1011.86
1011.57
1011.3
1011.03
1010.75
1010.47
1010.2
1009.92
1009.63
1009.34
1009.05
1008.75
1008.44
1008.12
1007.79
1007.46
1007.11
1006.75
1006.38
1005.99
1005.6
1005.18
1004.76
1004.31
1003.85
1003.37
1002.88
1002.36
1001.83
1001.28
1000.71
1000.12
999.507
998.876
998.227
997.558
996.87
996.165
995.442
994.704
993.951
993.184
992.406
991.617
990.821
990.019
989.212
988.404
987.597
986.794
985.996
985.206
984.427
983.661
982.911
982.177
981.463
980.771
980.101
979.454
978.833
978.239
977.671
977.131
976.619
976.135
975.679
975.251
974.85
974.477
974.131
973.811
973.516
973.247
973.001
972.779
972.58
972.403
972.248
972.114
971.999
971.904
971.827
971.769
971.728
971.704
971.696
971.705
971.729
971.768
971.821
971.888
971.969
972.063
972.169
972.288
972.419
972.56
972.713
972.877
973.05
973.234
973.427
973.629
973.839
974.057
974.283
974.517
974.757
975.004
975.257
975.515
975.779
976.047
976.32
976.596
976.875
977.157
977.441
977.727
978.014
978.301
978.589
978.875
979.161
979.444
979.726
980.004
980.278
980.548
980.813
981.072
981.326
981.572
981.812
982.044
982.267
982.482
982.688
982.884
983.07
983.246
983.411
983.566
983.709
983.842
983.962
984.071
984.169
984.256
984.331
984.394
984.446
984.487
984.516
984.535
984.542
984.537
984.522
984.495
984.456
984.406
984.343
984.267
984.177
984.073
983.954
983.82
983.669
983.5
983.314
983.111
982.889
982.65
982.393
982.121
981.833
981.532
981.22
980.898
980.571
980.241
979.911
979.585
979.266
978.959
978.667
978.394
978.143
977.918
977.721
977.555
977.423
977.325
977.263
977.238
977.25
977.299
977.383
977.503
977.656
977.84
978.054
978.296
978.561
978.848
979.154
979.477
979.811
980.156
980.508
980.865
981.223
981.581
981.936
982.286
982.629
982.964
983.289
983.603
983.904
984.193
984.467
984.728
984.974
985.206
985.425
985.629
985.821
986
986.167
986.323
986.47
986.609
986.74
986.865
986.985
987.101
987.214
987.325
987.436
987.546
987.657
987.768
987.881
987.995
988.111
988.228
988.346
988.465
988.585
988.703
988.821
988.937
989.049
989.158
989.262
989.36
989.45
989.532
989.605
989.667
989.716
989.755
989.784
989.79
989.781
989.774
989.739
989.659
989.608
989.567
989.405
989.254
989.258
989.096
988.792
988.766
988.729
988.463
988.388
988.388
988.239
1016.45
1016.46
1016.34
1015.98
1015.84
1015.64
1015.2
1014.94
1014.67
1014.3
1013.99
1013.73
1013.42
1013.1
1012.83
1012.56
1012.28
1012
1011.73
1011.46
1011.19
1010.92
1010.65
1010.37
1010.09
1009.81
1009.52
1009.23
1008.92
1008.62
1008.3
1007.97
1007.63
1007.28
1006.92
1006.55
1006.17
1005.77
1005.35
1004.92
1004.47
1004
1003.52
1003.02
1002.5
1001.96
1001.4
1000.82
1000.21
999.592
998.949
998.286
997.603
996.9
996.178
995.438
994.682
993.91
993.124
992.326
991.517
990.7
989.877
989.05
988.222
987.395
986.572
985.756
984.949
984.154
983.373
982.609
981.864
981.14
980.439
979.761
979.11
978.486
977.889
977.321
976.782
976.272
975.791
975.34
974.917
974.522
974.156
973.817
973.505
973.219
972.958
972.721
972.507
972.317
972.149
972.002
971.875
971.769
971.681
971.613
971.562
971.529
971.512
971.512
971.527
971.558
971.604
971.665
971.739
971.827
971.928
972.041
972.167
972.305
972.454
972.615
972.786
972.967
973.158
973.359
973.568
973.786
974.012
974.245
974.485
974.733
974.986
975.245
975.51
975.779
976.053
976.331
976.612
976.895
977.182
977.469
977.759
978.048
978.338
978.628
978.916
979.203
979.488
979.77
980.049
980.323
980.593
980.858
981.117
981.37
981.615
981.854
982.085
982.307
982.521
982.726
982.921
983.106
983.281
983.446
983.599
983.742
983.874
983.994
984.103
984.201
984.287
984.362
984.426
984.478
984.519
984.549
984.567
984.574
984.57
984.555
984.528
984.489
984.438
984.374
984.297
984.207
984.101
983.981
983.844
983.69
983.519
983.329
983.122
982.895
982.65
982.387
982.107
981.811
981.502
981.18
980.848
980.51
980.169
979.828
979.49
979.161
978.844
978.542
978.26
978.001
977.769
977.566
977.395
977.259
977.159
977.096
977.071
977.083
977.134
977.222
977.345
977.503
977.693
977.914
978.162
978.435
978.73
979.043
979.373
979.717
980.07
980.43
980.794
981.16
981.525
981.886
982.243
982.592
982.932
983.262
983.58
983.885
984.177
984.454
984.717
984.965
985.198
985.417
985.622
985.813
985.992
986.158
986.314
986.46
986.597
986.727
986.852
986.971
987.086
987.2
987.312
987.423
987.534
987.647
987.76
987.876
987.993
988.113
988.234
988.357
988.481
988.606
988.731
988.855
988.978
989.099
989.216
989.328
989.435
989.536
989.628
989.712
989.788
989.853
989.904
989.947
989.982
989.992
989.99
990.002
989.981
989.913
989.897
989.897
989.766
989.675
989.742
989.669
989.495
989.546
989.636
989.563
989.576
989.675
1016.16
1016.13
1016.01
1015.85
1015.68
1015.36
1015.15
1014.94
1014.58
1014.3
1014.07
1013.77
1013.47
1013.21
1012.95
1012.67
1012.4
1012.15
1011.88
1011.62
1011.35
1011.09
1010.82
1010.55
1010.27
1009.99
1009.71
1009.41
1009.11
1008.81
1008.49
1008.16
1007.83
1007.48
1007.12
1006.74
1006.35
1005.95
1005.53
1005.1
1004.65
1004.17
1003.69
1003.18
1002.65
1002.1
1001.53
1000.94
1000.33
999.691
999.034
998.356
997.657
996.937
996.197
995.438
994.662
993.869
993.061
992.241
991.409
990.568
989.722
988.871
988.02
987.171
986.326
985.489
984.662
983.848
983.051
982.271
981.513
980.777
980.065
979.381
978.723
978.095
977.496
976.927
976.39
975.882
975.405
974.959
974.542
974.155
973.796
973.465
973.162
972.884
972.632
972.405
972.201
972.02
971.861
971.723
971.606
971.508
971.429
971.368
971.326
971.3
971.292
971.299
971.323
971.361
971.415
971.483
971.565
971.661
971.77
971.892
972.026
972.172
972.329
972.498
972.678
972.868
973.068
973.278
973.495
973.722
973.956
974.198
974.447
974.703
974.964
975.231
975.503
975.78
976.06
976.344
976.631
976.92
977.211
977.503
977.796
978.09
978.383
978.674
978.965
979.253
979.539
979.822
980.1
980.374
980.643
980.907
981.165
981.416
981.66
981.897
982.126
982.346
982.557
982.76
982.952
983.135
983.308
983.471
983.623
983.764
983.894
984.013
984.121
984.218
984.303
984.378
984.441
984.493
984.534
984.564
984.583
984.59
984.586
984.57
984.543
984.504
984.452
984.388
984.31
984.218
984.111
983.988
983.849
983.693
983.518
983.324
983.112
982.881
982.63
982.36
982.073
981.77
981.452
981.121
980.78
980.432
980.081
979.729
979.382
979.043
978.717
978.407
978.117
977.851
977.612
977.404
977.229
977.09
976.988
976.924
976.899
976.913
976.966
977.057
977.185
977.348
977.544
977.771
978.026
978.306
978.609
978.931
979.268
979.62
979.981
980.349
980.721
981.094
981.466
981.834
982.197
982.551
982.896
983.231
983.553
983.862
984.157
984.437
984.702
984.951
985.185
985.404
985.609
985.8
985.978
986.143
986.298
986.443
986.58
986.709
986.833
986.952
987.068
987.182
987.294
987.407
987.52
987.635
987.752
987.871
987.992
988.117
988.243
988.372
988.502
988.634
988.766
988.898
989.029
989.158
989.285
989.408
989.525
989.637
989.743
989.84
989.929
990.011
990.082
990.138
990.192
990.239
990.26
990.277
990.315
990.317
990.284
990.32
990.358
990.298
990.307
990.417
990.439
990.467
990.605
990.741
990.916
991.065
1015.95
1015.86
1015.76
1015.69
1015.48
1015.25
1015.09
1014.82
1014.56
1014.35
1014.07
1013.8
1013.56
1013.31
1013.04
1012.78
1012.54
1012.28
1012.02
1011.77
1011.51
1011.26
1010.99
1010.73
1010.46
1010.18
1009.9
1009.61
1009.31
1009.01
1008.69
1008.37
1008.03
1007.68
1007.32
1006.95
1006.56
1006.15
1005.73
1005.29
1004.84
1004.36
1003.87
1003.35
1002.82
1002.26
1001.68
1001.08
1000.45
999.803
999.132
998.438
997.721
996.983
996.223
995.443
994.645
993.828
992.996
992.15
991.293
990.426
989.553
988.676
987.799
986.924
986.054
985.193
984.344
983.51
982.693
981.896
981.122
980.373
979.651
978.958
978.294
977.661
977.06
976.491
975.955
975.45
974.978
974.537
974.128
973.748
973.398
973.077
972.783
972.516
972.274
972.057
971.863
971.692
971.543
971.415
971.307
971.219
971.149
971.097
971.063
971.047
971.046
971.062
971.094
971.14
971.202
971.278
971.368
971.473
971.59
971.721
971.864
972.019
972.186
972.364
972.554
972.754
972.963
973.183
973.41
973.647
973.891
974.143
974.402
974.667
974.938
975.214
975.495
975.78
976.068
976.359
976.653
976.948
977.245
977.543
977.841
978.138
978.434
978.729
979.021
979.311
979.597
979.88
980.158
980.432
980.699
980.961
981.217
981.465
981.706
981.94
982.165
982.382
982.59
982.789
982.977
983.157
983.326
983.485
983.633
983.772
983.899
984.016
984.121
984.216
984.3
984.373
984.435
984.486
984.527
984.556
984.575
984.582
984.577
984.562
984.535
984.495
984.443
984.377
984.298
984.205
984.096
983.971
983.83
983.67
983.492
983.295
983.078
982.842
982.586
982.311
982.017
981.707
981.381
981.042
980.693
980.337
979.977
979.617
979.262
978.915
978.581
978.263
977.966
977.695
977.451
977.239
977.061
976.919
976.816
976.752
976.728
976.744
976.8
976.894
977.027
977.195
977.396
977.629
977.891
978.179
978.489
978.819
979.164
979.523
979.892
980.268
980.647
981.027
981.406
981.78
982.148
982.508
982.858
983.197
983.523
983.835
984.133
984.414
984.681
984.931
985.166
985.386
985.59
985.78
985.957
986.122
986.276
986.42
986.555
986.684
986.808
986.927
987.044
987.159
987.273
987.388
987.503
987.621
987.742
987.865
987.992
988.122
988.254
988.39
988.527
988.667
988.807
988.948
989.089
989.228
989.365
989.499
989.629
989.753
989.873
989.986
990.09
990.187
990.28
990.361
990.429
990.5
990.566
990.606
990.653
990.729
990.767
990.784
990.882
990.982
991.014
991.125
991.321
991.473
991.64
991.901
992.21
992.473
1015.73
1015.68
1015.61
1015.48
1015.33
1015.2
1014.98
1014.75
1014.57
1014.34
1014.08
1013.86
1013.63
1013.37
1013.13
1012.9
1012.66
1012.41
1012.16
1011.92
1011.67
1011.42
1011.16
1010.9
1010.64
1010.37
1010.09
1009.8
1009.51
1009.21
1008.9
1008.57
1008.24
1007.89
1007.53
1007.16
1006.77
1006.36
1005.94
1005.5
1005.04
1004.56
1004.06
1003.54
1003
1002.43
1001.84
1001.23
1000.59
999.928
999.241
998.53
997.795
997.037
996.255
995.453
994.63
993.787
992.929
992.055
991.168
990.273
989.37
988.464
987.558
986.654
985.757
984.869
983.995
983.137
982.299
981.483
980.692
979.929
979.195
978.492
977.823
977.185
976.582
976.013
975.478
974.978
974.511
974.077
973.676
973.305
972.965
972.654
972.371
972.115
971.885
971.679
971.496
971.337
971.198
971.081
970.984
970.905
970.844
970.802
970.777
970.769
970.777
970.802
970.842
970.897
970.967
971.052
971.151
971.264
971.39
971.53
971.683
971.848
972.025
972.214
972.414
972.624
972.844
973.075
973.314
973.561
973.817
974.08
974.35
974.626
974.907
975.194
975.485
975.779
976.076
976.376
976.678
976.981
977.285
977.588
977.891
978.193
978.493
978.79
979.085
979.376
979.664
979.946
980.224
980.496
980.762
981.022
981.274
981.519
981.756
981.985
982.206
982.417
982.62
982.813
982.997
983.17
983.334
983.488
983.631
983.764
983.887
983.999
984.101
984.192
984.273
984.344
984.404
984.453
984.492
984.52
984.537
984.544
984.539
984.523
984.495
984.455
984.402
984.336
984.256