# vtk DataFile Version 2.0
LBE mesh
ASCII
DATASET STRUCTURED_POINTS
DIMENSIONS 300 100 1
ASPECT_RATIO 1 1 1
ORIGIN 0 0 0
POINT_DATA 30000
SCALARS rho double 1
LOOKUP_TABLE default
1045.59
1013.7
1012.94
1019.41
1017.55
1013.58
1013.34
1013.82
1013.01
1012.17
1011.97
1011.76
1011.35
1011
1010.77
1010.51
1010.23
1009.96
1009.72
1009.47
1009.21
1008.96
1008.71
1008.45
1008.19
1007.93
1007.66
1007.38
1007.09
1006.8
1006.5
1006.19
1005.87
1005.54
1005.19
1004.84
1004.47
1004.09
1003.69
1003.28
1002.86
1002.42
1001.96
1001.49
1001
1000.49
999.969
999.427
998.869
998.293
997.699
997.089
996.461
995.818
995.159
994.485
993.797
993.096
992.383
991.659
990.925
990.184
989.437
988.685
987.93
987.175
986.42
985.668
984.921
984.182
983.451
982.731
982.023
981.329
980.652
979.991
979.35
978.728
978.127
977.548
976.992
976.459
975.95
975.465
975.004
974.567
974.155
973.767
973.403
973.062
972.744
972.449
972.175
971.923
971.691
971.48
971.288
971.115
970.959
970.821
970.7
970.594
970.504
970.429
970.368
970.321
970.287
970.265
970.254
970.256
970.268
970.29
970.323
970.365
970.417
970.477
970.545
970.622
970.706
970.797
970.896
971.001
971.113
971.231
971.354
971.484
971.619
971.76
971.906
972.057
972.213
972.375
972.541
972.713
972.889
973.071
973.259
973.452
973.651
973.856
974.067
974.284
974.509
974.74
974.979
975.226
975.481
975.743
976.015
976.295
976.584
976.881
977.188
977.504
977.828
978.161
978.503
978.853
979.211
979.575
979.946
980.323
980.706
981.092
981.482
981.874
982.269
982.664
983.058
983.451
983.842
984.229
984.611
984.988
985.359
985.722
986.077
986.423
986.758
987.083
987.397
987.699
987.988
988.264
988.526
988.775
989.01
989.229
989.435
989.625
989.801
989.961
990.107
990.238
990.353
990.454
990.539
990.609
990.663
990.702
990.725
990.731
990.721
990.694
990.65
990.587
990.506
990.406
990.286
990.146
989.986
989.806
989.604
989.382
989.139
988.876
988.593
988.291
987.97
987.633
987.279
986.911
986.53
986.138
985.737
985.33
984.918
984.505
984.092
983.682
983.277
982.881
982.495
982.123
981.766
981.426
981.105
980.805
980.527
980.273
980.042
979.837
979.657
979.502
979.372
979.266
979.185
979.125
979.087
979.068
979.068
979.083
979.112
979.153
979.203
979.26
979.322
979.387
979.451
979.514
979.572
979.624
979.668
979.702
979.724
979.734
979.73
979.71
979.676
979.625
979.557
979.472
979.369
979.25
979.113
978.958
978.787
978.599
978.392
978.17
977.932
977.672
977.393
977.103
976.788
976.432
976.073
975.713
975.247
974.709
974.324
973.821
972.758
972.034
972.147
970.21
966.507
968.621
969.514
946.487
1028.4
1024.79
1020.65
1015.39
1015.54
1015.67
1014.45
1013.25
1012.97
1012.68
1012.17
1011.73
1011.45
1011.16
1010.84
1010.55
1010.29
1010.03
1009.76
1009.5
1009.25
1008.99
1008.73
1008.47
1008.21
1007.94
1007.66
1007.38
1007.09
1006.8
1006.49
1006.18
1005.86
1005.52
1005.18
1004.82
1004.45
1004.06
1003.67
1003.25
1002.83
1002.39
1001.93
1001.45
1000.96
1000.45
999.928
999.385
998.825
998.248
997.654
997.043
996.415
995.772
995.113
994.439
993.751
993.051
992.338
991.616
990.884
990.144
989.398
988.648
987.896
987.143
986.391
985.642
984.899
984.162
983.434
982.718
982.013
981.323
980.649
979.992
979.354
978.736
978.139
977.563
977.01
976.481
975.975
975.492
975.034
974.6
974.19
973.805
973.442
973.103
972.787
972.493
972.221
971.97
971.74
971.529
971.339
971.166
971.011
970.874
970.753
970.648
970.558
970.484
970.423
970.376
970.342
970.32
970.31
970.311
970.323
970.346
970.379
970.421
970.472
970.532
970.6
970.676
970.76
970.851
970.949
971.054
971.165
971.283
971.406
971.535
971.669
971.809
971.954
972.105
972.26
972.421
972.586
972.757
972.932
973.113
973.3
973.492
973.689
973.893
974.103
974.319
974.542
974.772
975.01
975.255
975.508
975.769
976.039
976.317
976.604
976.9
977.205
977.519
977.841
978.173
978.512
978.86
979.216
979.578
979.948
980.323
980.703
981.088
981.476
981.867
982.26
982.653
983.046
983.438
983.827
984.213
984.595
984.971
985.34
985.703
986.057
986.403
986.738
987.063
987.376
987.678
987.967
988.243
988.506
988.754
988.989
989.209
989.415
989.605
989.781
989.942
990.088
990.219
990.335
990.435
990.521
990.591
990.645
990.684
990.708
990.715
990.706
990.68
990.636
990.575
990.495
990.396
990.278
990.141
989.983
989.804
989.606
989.386
989.146
988.886
988.606
988.307
987.989
987.654
987.303
986.937
986.559
986.169
985.77
985.364
984.954
984.541
984.128
983.718
983.314
982.917
982.53
982.156
981.798
981.456
981.132
980.829
980.549
980.292
980.058
979.849
979.666
979.508
979.374
979.265
979.18
979.117
979.076
979.054
979.05
979.063
979.09
979.128
979.176
979.231
979.291
979.354
979.418
979.479
979.537
979.588
979.632
979.666
979.688
979.698
979.694
979.675
979.641
979.59
979.523
979.438
979.336
979.216
979.079
978.924
978.752
978.562
978.356
978.13
977.887
977.628
977.348
977.044
976.725
976.386
976.003
975.588
975.182
974.703
974.084
973.514
973.017
972.004
970.719
970.24
969.159
965.149
961.537
959.732
1020.25
1025.05
1020.32
1015.97
1016.18
1015.86
1014.44
1013.45
1013.22
1012.83
1012.27
1011.85
1011.56
1011.25
1010.92
1010.63
1010.36
1010.08
1009.81
1009.55
1009.29
1009.03
1008.76
1008.5
1008.23
1007.96
1007.68
1007.4
1007.11
1006.81
1006.5
1006.19
1005.86
1005.52
1005.18
1004.82
1004.44
1004.06
1003.66
1003.24
1002.82
1002.37
1001.91
1001.43
1000.94
1000.43
999.905
999.361
998.799
998.221
997.625
997.012
996.383
995.738
995.078
994.403
993.714
993.013
992.3
991.576
990.844
990.104
989.358
988.608
987.856
987.103
986.352
985.604
984.861
984.126
983.399
982.684
981.982
981.294
980.622
979.968
979.332
978.717
978.122
977.549
976.999
976.473
975.969
975.49
975.035
974.604
974.197
973.814
973.454
973.118
972.804
972.512
972.242
971.993
971.765
971.556
971.367
971.195
971.042
970.906
970.787
970.683
970.594
970.521
970.461
970.414
970.381
970.36
970.35
970.352
970.365
970.387
970.42
970.463
970.514
970.575
970.643
970.719
970.803
970.894
970.992
971.097
971.208
971.325
971.448
971.577
971.711
971.85
971.994
972.144
972.298
972.458
972.622
972.792
972.967
973.147
973.332
973.523
973.719
973.921
974.13
974.345
974.566
974.795
975.03
975.274
975.525
975.785
976.053
976.329
976.614
976.908
977.211
977.523
977.844
978.174
978.512
978.858
979.212
979.574
979.942
980.315
980.694
981.078
981.466
981.856
982.248
982.64
983.033
983.424
983.813
984.199
984.58
984.957
985.327
985.689
986.044
986.389
986.725
987.05
987.364
987.666
987.956
988.232
988.495
988.744
988.979
989.2
989.406
989.597
989.773
989.934
990.08
990.212
990.328
990.428
990.514
990.584
990.639
990.679
990.703
990.711
990.703
990.678
990.636
990.576
990.498
990.402
990.286
990.151
989.996
989.82
989.624
989.407
989.169
988.911
988.634
988.336
988.021
987.687
987.337
986.973
986.594
986.205
985.806
985.399
984.987
984.573
984.158
983.746
983.339
982.939
982.549
982.172
981.81
981.464
981.137
980.83
980.546
980.285
980.048
979.836
979.649
979.487
979.351
979.239
979.152
979.087
979.044
979.02
979.016
979.027
979.053
979.091
979.139
979.195
979.255
979.319
979.383
979.446
979.505
979.557
979.602
979.638
979.662
979.673
979.671
979.653
979.62
979.57
979.504
979.42
979.318
979.198
979.061
978.906
978.733
978.542
978.335
978.108
977.862
977.6
977.322
977.014
976.684
976.351
975.979
975.533
975.107
974.711
974.077
973.32
972.993
972.364
970.464
969.688
970.609
966.495
961.171
965.388
1019.97
1018.67
1018.1
1019.25
1016.7
1014.56
1014.49
1014.37
1013.43
1012.68
1012.42
1012.12
1011.68
1011.31
1011.03
1010.74
1010.44
1010.15
1009.89
1009.62
1009.35
1009.08
1008.82
1008.55
1008.28
1008
1007.72
1007.43
1007.14
1006.84
1006.53
1006.21
1005.88
1005.55
1005.2
1004.83
1004.46
1004.07
1003.67
1003.25
1002.82
1002.38
1001.91
1001.44
1000.94
1000.43
999.9
999.353
998.79
998.209
997.61
996.995
996.363
995.715
995.052
994.374
993.682
992.978
992.262
991.535
990.8
990.057
989.309
988.556
987.801
987.047
986.293
985.544
984.799
984.063
983.336
982.621
981.918
981.231
980.56
979.907
979.273
978.659
978.067
977.497
976.949
976.425
975.926
975.45
974.998
974.57
974.166
973.787
973.431
973.097
972.787
972.498
972.231
971.985
971.759
971.554
971.366
971.198
971.047
970.913
970.795
970.693
970.606
970.534
970.475
970.43
970.398
970.378
970.369
970.372
970.385
970.409
970.443
970.486
970.539
970.599
970.668
970.745
970.829
970.921
971.019
971.124
971.236
971.353
971.475
971.604
971.738
971.877
972.022
972.171
972.325
972.484
972.648
972.817
972.991
973.17
973.354
973.543
973.738
973.939
974.146
974.36
974.579
974.806
975.041
975.282
975.532
975.79
976.056
976.33
976.614
976.906
977.208
977.519
977.838
978.167
978.504
978.849
979.202
979.562
979.93
980.303
980.682
981.065
981.452
981.843
982.235
982.627
983.02
983.412
983.802
984.188
984.57
984.947
985.318
985.681
986.037
986.383
986.72
987.046
987.361
987.664
987.954
988.231
988.495
988.745
988.981
989.202
989.408
989.6
989.776
989.938
990.084
990.215
990.331
990.433
990.519
990.59
990.645
990.686
990.711
990.72
990.713
990.69
990.649
990.592
990.516
990.422
990.309
990.176
990.023
989.85
989.656
989.442
989.206
988.951
988.674
988.378
988.063
987.73
987.38
987.014
986.634
986.243
985.841
985.432
985.017
984.598
984.18
983.763
983.351
982.946
982.551
982.168
981.8
981.449
981.118
980.806
980.517
980.252
980.011
979.795
979.605
979.441
979.303
979.19
979.101
979.035
978.991
978.968
978.964
978.976
979.003
979.043
979.093
979.151
979.214
979.281
979.348
979.413
979.475
979.531
979.579
979.617
979.644
979.658
979.658
979.643
979.611
979.563
979.498
979.415
979.314
979.195
979.058
978.902
978.729
978.538
978.328
978.102
977.858
977.591
977.308
977.012
976.684
976.322
975.964
975.582
975.092
974.597
974.208
973.585
972.648
972.192
971.818
969.997
968.463
968.707
968.032
966.487
1019.96
1017.75
1017.64
1017.5
1015.99
1015.54
1014.94
1014.05
1013.41
1013.08
1012.66
1012.18
1011.79
1011.48
1011.17
1010.84
1010.54
1010.27
1009.99
1009.71
1009.44
1009.17
1008.9
1008.62
1008.35
1008.07
1007.79
1007.5
1007.2
1006.9
1006.59
1006.26
1005.93
1005.59
1005.24
1004.88
1004.5
1004.11
1003.71
1003.29
1002.86
1002.41
1001.94
1001.46
1000.96
1000.45
999.915
999.365
998.797
998.212
997.609
996.99
996.353
995.701
995.032
994.349
993.652
992.942
992.22
991.488
990.747
989.998
989.244
988.486
987.726
986.966
986.208
985.454
984.707
983.967
983.237
982.519
981.815
981.126
980.455
979.802
979.169
978.556
977.965
977.398
976.853
976.332
975.836
975.363
974.915
974.492
974.092
973.717
973.365
973.036
972.73
972.445
972.182
971.94
971.719
971.516
971.332
971.167
971.019
970.887
970.772
970.672
970.588
970.517
970.461
970.417
970.387
970.368
970.361
970.365
970.38
970.405
970.44
970.484
970.538
970.599
970.669
970.747
970.832
970.925
971.024
971.13
971.242
971.36
971.484
971.613
971.747
971.887
972.031
972.181
972.335
972.494
972.658
972.827
973.001
973.179
973.363
973.551
973.745
973.945
974.151
974.363
974.582
974.808
975.041
975.281
975.529
975.786
976.05
976.324
976.606
976.898
977.198
977.507
977.826
978.154
978.49
978.835
979.188
979.548
979.915
980.289
980.668
981.052
981.44
981.83
982.223
982.617
983.011
983.403
983.794
984.182
984.565
984.944
985.316
985.681
986.037
986.385
986.723
987.05
987.366
987.671
987.962
988.24
988.505
988.756
988.992
989.214
989.421
989.613
989.79
989.952
990.099
990.23
990.347
990.448
990.535
990.606
990.663
990.704
990.73
990.74
990.735
990.713
990.675
990.619
990.546
990.454
990.344
990.213
990.063
989.892
989.701
989.488
989.255
989
988.725
988.428
988.113
987.778
987.426
987.058
986.675
986.28
985.874
985.459
985.038
984.614
984.189
983.765
983.347
982.935
982.533
982.144
981.769
981.412
981.074
980.758
980.464
980.194
979.95
979.731
979.538
979.372
979.232
979.118
979.028
978.963
978.92
978.898
978.896
978.911
978.941
978.985
979.038
979.1
979.168
979.239
979.31
979.381
979.447
979.507
979.559
979.602
979.633
979.651
979.654
979.642
979.613
979.568
979.504
979.423
979.323
979.204
979.068
978.913
978.74
978.549
978.34
978.112
977.869
977.607
977.32
977.021
976.709
976.353
975.968
975.611
975.199
974.641
974.178
973.834
973.015
972.072
972.036
971.347
969.284
969.196
969.54
968.129
1017.86
1017.86
1017.41
1015.9
1016
1015.82
1014.61
1013.95
1013.76
1013.3
1012.69
1012.29
1012.01
1011.66
1011.28
1010.98
1010.7
1010.4
1010.11
1009.83
1009.56
1009.28
1009
1008.73
1008.45
1008.17
1007.88
1007.59
1007.29
1006.98
1006.67
1006.35
1006.01
1005.67
1005.32
1004.95
1004.57
1004.18
1003.77
1003.35
1002.91
1002.46
1001.99
1001.51
1001.01
1000.49
999.949
999.394
998.821
998.23
997.622
996.996
996.353
995.693
995.017
994.326
993.621
992.903
992.173
991.432
990.682
989.925
989.162
988.396
987.628
986.86
986.094
985.333
984.579
983.833
983.098
982.376
981.669
980.977
980.304
979.649
979.016
978.404
977.814
977.248
976.706
976.188
975.695
975.227
974.784
974.365
973.971
973.6
973.254
972.93
972.629
972.35
972.092
971.855
971.637
971.439
971.26
971.098
970.954
970.826
970.714
970.617
970.535
970.467
970.412
970.371
970.343
970.326
970.32
970.326
970.343
970.369
970.406
970.451
970.506
970.57
970.641
970.72
970.807
970.901
971.002
971.109
971.223
971.343
971.468
971.598
971.734
971.875
972.02
972.171
972.326
972.486
972.651
972.82
972.994
973.173
973.357
973.546
973.74
973.94
974.145
974.357
974.575
974.8
975.032
975.272
975.52
975.775
976.039
976.312
976.594
976.885
977.185
977.494
977.812
978.14
978.476
978.821
979.174
979.535
979.903
980.277
980.657
981.042
981.431
981.823
982.217
982.612
983.007
983.401
983.793
984.183
984.568
984.948
985.321
985.688
986.046
986.395
986.734
987.063
987.381
987.686
987.979
988.258
988.524
988.776
989.013
989.236
989.444
989.636
989.814
989.976
990.123
990.255
990.372
990.474
990.561
990.633
990.69
990.732
990.76
990.771
990.767
990.747
990.711
990.657
990.586
990.497
990.389
990.261
990.113
989.945
989.755
989.544
989.311
989.057
988.781
988.484
988.167
987.83
987.474
987.102
986.714
986.313
985.9
985.479
985.051
984.619
984.185
983.753
983.326
982.906
982.497
982.1
981.718
981.354
981.009
980.687
980.388
980.113
979.865
979.643
979.448
979.28
979.139
979.025
978.937
978.873
978.832
978.813
978.814
978.833
978.868
978.916
978.975
979.042
979.116
979.193
979.27
979.347
979.419
979.485
979.543
979.591
979.627
979.65
979.657
979.649
979.624
979.581
979.521
979.441
979.343
979.226
979.091
978.938
978.765
978.575
978.368
978.142
977.897
977.639
977.361
977.056
976.74
976.421
976.048
975.632
975.276
974.878
974.266
973.77
973.521
972.749
971.736
971.635
971.378
970.285
969.77
970.198
1016.81
1017.18
1016.67
1016
1015.78
1015.01
1014.61
1014.33
1013.74
1013.18
1012.86
1012.55
1012.13
1011.75
1011.45
1011.16
1010.84
1010.54
1010.26
1009.98
1009.7
1009.42
1009.14
1008.86
1008.58
1008.29
1008
1007.71
1007.41
1007.1
1006.78
1006.46
1006.12
1005.78
1005.42
1005.05
1004.67
1004.27
1003.86
1003.44
1003
1002.54
1002.07
1001.58
1001.07
1000.55
1000
999.443
998.863
998.265
997.648
997.014
996.362
995.692
995.007
994.306
993.59
992.861
992.119
991.367
990.605
989.836
989.062
988.284
987.505
986.726
985.95
985.18
984.416
983.662
982.92
982.191
981.478
980.782
980.105
979.449
978.814
978.201
977.613
977.048
976.508
975.994
975.505
975.041
974.603
974.189
973.801
973.437
973.096
972.779
972.484
972.211
971.959
971.727
971.515
971.322
971.148
970.99
970.85
970.726
970.618
970.524
970.445
970.38
970.328
970.289
970.263
970.248
970.244
970.251
970.27
970.298
970.336
970.383
970.44
970.505
970.578
970.659
970.748
970.844
970.947
971.057
971.173
971.295
971.422
971.555
971.693
971.836
971.984
972.137
972.295
972.457
972.623
972.794
972.97
973.151
973.336
973.526
973.721
973.922
974.128
974.341
974.559
974.785
975.018
975.258
975.506
975.762
976.026
976.299
976.581
976.872
977.173
977.483
977.802
978.13
978.467
978.813
979.167
979.529
979.897
980.273
980.654
981.04
981.43
981.823
982.219
982.616
983.012
983.408
983.802
984.193
984.579
984.961
985.336
985.704
986.063
986.414
986.755
987.085
987.404
987.711
988.005
988.285
988.552
988.805
989.043
989.266
989.475
989.668
989.846
990.009
990.157
990.289
990.407
990.509
990.597
990.67
990.727
990.77
990.798
990.811
990.809
990.79
990.755
990.704
990.636
990.548
990.442
990.317
990.171
990.004
989.816
989.605
989.373
989.118
988.841
988.542
988.222
987.881
987.521
987.143
986.749
986.34
985.92
985.49
985.052
984.611
984.168
983.727
983.29
982.861
982.442
982.036
981.646
981.275
980.924
980.595
980.291
980.012
979.76
979.535
979.338
979.17
979.029
978.915
978.828
978.767
978.729
978.714
978.72
978.744
978.784
978.838
978.903
978.978
979.058
979.142
979.227
979.311
979.39
979.464
979.529
979.583
979.625
979.654
979.667
979.663
979.643
979.604
979.547
979.47
979.375
979.26
979.127
978.976
978.805
978.616
978.411
978.189
977.947
977.688
977.419
977.128
976.807
976.485
976.162
975.767
975.344
975.018
974.599
973.96
973.582
973.344
972.522
971.895
971.912
971.417
971.007
971.394
1016.54
1016.21
1015.95
1016.05
1015.39
1014.78
1014.65
1014.19
1013.65
1013.33
1013.01
1012.59
1012.22
1011.93
1011.62
1011.29
1010.99
1010.71
1010.42
1010.14
1009.85
1009.58
1009.3
1009.02
1008.73
1008.45
1008.15
1007.86
1007.55
1007.24
1006.92
1006.6
1006.26
1005.91
1005.55
1005.18
1004.79
1004.39
1003.98
1003.55
1003.11
1002.65
1002.17
1001.67
1001.16
1000.63
1000.08
999.51
998.922
998.314
997.688
997.043
996.381
995.7
995.002
994.288
993.559
992.816
992.06
991.293
990.517
989.733
988.944
988.152
987.358
986.566
985.777
984.994
984.219
983.454
982.702
981.965
981.245
980.543
979.861
979.201
978.564
977.95
977.362
976.799
976.261
975.75
975.265
974.806
974.374
973.967
973.585
973.227
972.894
972.583
972.295
972.029
971.784
971.559
971.353
971.166
970.997
970.845
970.709
970.59
970.485
970.395
970.319
970.257
970.207
970.17
970.145
970.132
970.131
970.14
970.159
970.189
970.228
970.277
970.336
970.402
970.477
970.561
970.652
970.751
970.856
970.969
971.088
971.213
971.344
971.48
971.622
971.768
971.92
972.077
972.238
972.403
972.573
972.748
972.927
973.111
973.299
973.492
973.69
973.893
974.102
974.317
974.538
974.766
975
975.242
975.491
975.749
976.015
976.29
976.573
976.866
977.168
977.479
977.799
978.129
978.467
978.814
979.17
979.533
979.904
980.28
980.663
981.05
981.442
981.837
982.233
982.631
983.03
983.427
983.822
984.214
984.601
984.984
985.361
985.73
986.091
986.443
986.784
987.116
987.435
987.743
988.038
988.32
988.588
988.841
989.08
989.304
989.513
989.707
989.886
990.05
990.198
990.331
990.449
990.552
990.64
990.713
990.772
990.815
990.844
990.858
990.857
990.84
990.806
990.757
990.69
990.604
990.5
990.376
990.232
990.067
989.879
989.669
989.436
989.18
988.901
988.599
988.275
987.929
987.563
987.178
986.776
986.359
985.93
985.49
985.042
984.59
984.137
983.685
983.238
982.799
982.37
981.956
981.558
981.178
980.82
980.486
980.176
979.893
979.637
979.41
979.212
979.043
978.902
978.789
978.705
978.646
978.613
978.602
978.613
978.643
978.689
978.75
978.823
978.906
978.994
979.087
979.18
979.272
979.36
979.442
979.515
979.577
979.626
979.661
979.681
979.683
979.668
979.634
979.581
979.509
979.417
979.306
979.176
979.026
978.86
978.675
978.471
978.252
978.018
977.764
977.492
977.216
976.92
976.583
976.259
975.947
975.54
975.107
974.821
974.43
973.798
973.458
973.299
972.716
972.219
972.238
972.264
972.162
1016.08
1015.85
1015.7
1015.48
1015.06
1014.89
1014.46
1013.98
1013.74
1013.42
1012.99
1012.65
1012.38
1012.06
1011.73
1011.43
1011.16
1010.87
1010.58
1010.3
1010.02
1009.75
1009.46
1009.18
1008.9
1008.61
1008.32
1008.02
1007.72
1007.41
1007.09
1006.76
1006.42
1006.07
1005.7
1005.33
1004.94
1004.54
1004.12
1003.69
1003.24
1002.78
1002.29
1001.79
1001.27
1000.73
1000.17
999.595
998.997
998.379
997.742
997.085
996.409
995.714
995.002
994.273
993.528
992.768
991.996
991.211
990.418
989.616
988.81
988
987.189
986.38
985.576
984.778
983.988
983.211
982.447
981.7
980.97
980.261
979.573
978.908
978.268
977.653
977.064
976.503
975.968
975.461
974.98
974.527
974.1
973.7
973.325
972.975
972.649
972.347
972.067
971.809
971.571
971.353
971.154
970.974
970.81
970.664
970.533
970.418
970.317
970.231
970.158
970.098
970.051
970.016
969.993
969.981
969.981
969.991
970.012
970.042
970.083
970.133
970.193
970.261
970.338
970.423
970.517
970.619
970.727
970.843
970.965
971.094
971.229
971.37
971.516
971.668
971.825
971.987
972.153
972.324
972.499
972.679
972.864
973.053
973.246
973.444
973.647
973.855
974.068
974.288
974.512
974.744
974.982
975.228
975.481
975.741
976.01
976.288
976.574
976.87
977.174
977.487
977.81
978.142
978.482
978.831
979.189
979.554
979.926
980.304
980.688
981.077
981.47
981.866
982.264
982.662
983.062
983.46
983.856
984.248
984.637
985.02
985.397
985.767
986.128
986.48
986.823
987.154
987.475
987.783
988.078
988.36
988.629
988.883
989.122
989.347
989.557
989.751
989.93
990.094
990.243
990.377
990.495
990.599
990.687
990.761
990.82
990.865
990.894
990.909
990.908
990.892
990.86
990.812
990.746
990.662
990.559
990.436
990.293
990.128
989.941
989.73
989.496
989.238
988.956
988.65
988.322
987.97
987.598
987.205
986.795
986.369
985.929
985.478
985.02
984.557
984.092
983.63
983.172
982.723
982.284
981.86
981.454
981.067
980.702
980.361
980.046
979.759
979.5
979.271
979.071
978.901
978.761
978.65
978.568
978.513
978.484
978.478
978.495
978.531
978.586
978.654
978.736
978.827
978.924
979.026
979.129
979.231
979.328
979.419
979.501
979.571
979.629
979.672
979.699
979.708
979.699
979.671
979.624
979.556
979.469
979.362
979.236
979.091
978.927
978.747
978.549
978.333
978.104
977.862
977.598
977.319
977.042
976.741
976.398
976.084
975.781
975.369
974.969
974.718
974.324
973.807
973.572
973.355
972.975
972.842
972.859
972.961
1015.56
1015.57
1015.44
1015.07
1014.93
1014.72
1014.27
1014.01
1013.73
1013.36
1013.04
1012.77
1012.46
1012.14
1011.86
1011.59
1011.29
1011.01
1010.74
1010.47
1010.19
1009.91
1009.64
1009.36
1009.08
1008.79
1008.5
1008.2
1007.9
1007.59
1007.27
1006.94
1006.59
1006.24
1005.88
1005.5
1005.11
1004.71
1004.29
1003.85
1003.4
1002.92
1002.44
1001.93
1001.4
1000.85
1000.28
999.696
999.087
998.458
997.808
997.137
996.447
995.736
995.008
994.261
993.498
992.72
991.927
991.123
990.309
989.488
988.66
987.83
986.999
986.171
985.348
984.532
983.726
982.933
982.155
981.396
980.656
979.937
979.243
978.573
977.929
977.312
976.723
976.163
975.631
975.127
974.652
974.205
973.785
973.393
973.026
972.685
972.367
972.074
971.803
971.553
971.324
971.114
970.922
970.749
970.592
970.451
970.326
970.215
970.118
970.036
969.966
969.908
969.863
969.83
969.808
969.797
969.797
969.808
969.829
969.86
969.901
969.952
970.013
970.082
970.161
970.248
970.344
970.448
970.559
970.679
970.805
970.939
971.079
971.225
971.377
971.535
971.698
971.866
972.04
972.218
972.401
972.588
972.78
972.976
973.177
973.382
973.593
973.807
974.028
974.253
974.485
974.723
974.967
975.218
975.476
975.742
976.016
976.298
976.589
976.888
977.196
977.513
977.839
978.174
978.517
978.869
979.228
979.595
979.969
980.349
980.734
981.124
981.518
981.914
982.313
982.712
983.112
983.51
983.906
984.298
984.686
985.069
985.446
985.815
986.176
986.528
986.87
987.201
987.521
987.829
988.124
988.406
988.674
988.928
989.167
989.392
989.601
989.796
989.976
990.14
990.289
990.423
990.542
990.646
990.735
990.809
990.869
990.914
990.944
990.959
990.959
990.944
990.912
990.865
990.8
990.717
990.614
990.492
990.349
990.184
989.996
989.785
989.549
989.289
989.004
988.694
988.36
988.002
987.622
987.222
986.802
986.367
985.917
985.455
984.986
984.512
984.036
983.562
983.093
982.634
982.185
981.753
981.337
980.942
980.571
980.224
979.904
979.613
979.351
979.119
978.918
978.748
978.609
978.5
978.42
978.369
978.344
978.344
978.367
978.411
978.473
978.55
978.641
978.741
978.849
978.961
979.074
979.186
979.293
979.394
979.486
979.566
979.633
979.685
979.72
979.737
979.735
979.714
979.673
979.612
979.53
979.428
979.307
979.168
979.009
978.833
978.643
978.435
978.21
977.974
977.728
977.457
977.175
976.904
976.603
976.257
975.96
975.678
975.273
974.905
974.69
974.351
973.932
973.745
973.638
973.431
973.37
973.603
1015.27
1015.24
1015.11
1014.94
1014.77
1014.44
1014.23
1014.01
1013.65
1013.36
1013.12
1012.82
1012.51
1012.25
1011.98
1011.7
1011.42
1011.16
1010.89
1010.62
1010.35
1010.09
1009.81
1009.54
1009.26
1008.98
1008.69
1008.39
1008.09
1007.78
1007.46
1007.13
1006.79
1006.43
1006.07
1005.69
1005.3
1004.89
1004.46
1004.02
1003.57
1003.09
1002.6
1002.08
1001.54
1000.99
1000.41
999.813
999.193
998.55
997.886
997.2
996.494
995.766
995.019
994.253
993.469
992.669
991.855
991.028
990.191
989.346
988.496
987.642
986.789
985.938
985.093
984.257
983.432
982.622
981.828
981.054
980.302
979.574
978.871
978.195
977.547
976.929
976.34
975.781
975.252
974.753
974.284
973.844
973.432
973.048
972.69
972.359
972.051
971.768
971.506
971.266
971.046
970.845
970.662
970.495
970.346
970.211
970.091
969.986
969.893
969.814
969.746
969.691
969.647
969.615
969.593
969.583
969.583
969.594
969.615
969.646
969.687
969.738
969.798
969.868
969.947
970.036
970.134
970.24
970.355
970.477
970.608
970.746
970.892
971.044
971.203
971.368
971.539
971.715
971.897
972.084
972.277
972.473
972.675
972.881
973.091
973.307
973.527
973.751
973.981
974.216
974.456
974.703
974.955
975.214
975.48
975.753
976.034
976.323
976.619
976.924
977.238
977.559
977.89
978.228
978.575
978.929
979.292
979.661
980.036
980.418
980.804
981.195
981.589
981.986
982.384
982.783
983.181
983.579
983.973
984.365
984.751
985.132
985.508
985.875
986.234
986.585
986.925
987.255
987.573
987.879
988.173
988.454
988.721
988.973
989.212
989.436
989.645
989.839
990.018
990.182
990.331
990.465
990.584
990.688
990.778
990.852
990.912
990.957
990.988
991.003
991.004
990.989
990.958
990.911
990.846
990.763
990.661
990.539
990.396
990.23
990.041
989.829
989.591
989.328
989.039
988.725
988.385
988.022
987.634
987.226
986.797
986.352
985.892
985.42
984.94
984.454
983.967
983.482
983.004
982.534
982.076
981.634
981.21
980.808
980.43
980.077
979.752
979.457
979.191
978.958
978.755
978.585
978.447
978.34
978.263
978.215
978.195
978.202
978.231
978.282
978.353
978.439
978.539
978.649
978.768
978.89
979.014
979.137
979.256
979.368
979.47
979.561
979.638
979.699
979.744
979.77
979.776
979.763
979.729
979.674
979.599
979.504
979.389
979.256
979.105
978.935
978.75
978.552
978.337
978.106
977.868
977.621
977.347
977.068
976.806
976.507
976.173
975.898
975.624
975.253
974.943
974.728
974.437
974.163
974.022
973.92
973.897
974.031
1015.06
1014.97
1014.86
1014.78
1014.57
1014.33
1014.17
1013.89
1013.63
1013.4
1013.12
1012.84
1012.6
1012.34
1012.07
1011.81
1011.56
1011.3
1011.03
1010.78
1010.52
1010.25
1009.99
1009.72
1009.44
1009.16
1008.88
1008.58
1008.28
1007.97
1007.66
1007.33
1006.99
1006.63
1006.27
1005.89
1005.5
1005.09
1004.66
1004.22
1003.75
1003.27
1002.77
1002.25
1001.71
1001.14
1000.55
999.944
999.311
998.655
997.976
997.274
996.549
995.803
995.035
994.247
993.441
992.618
991.779
990.927
990.064
989.193
988.316
987.436
986.557
985.681
984.812
983.953
983.107
982.277
981.466
980.676
979.91
979.171
978.459
977.776
977.124
976.503
975.915
975.358
974.833
974.339
973.877
973.445
973.043
972.669
972.322
972.001
971.704
971.432
971.181
970.952
970.742
970.55
970.376
970.218
970.076
969.948
969.833
969.733
969.644
969.568
969.503
969.45
969.408
969.376
969.354
969.344
969.344
969.353
969.373
969.403
969.443
969.493
969.552
969.622
969.702
969.791
969.89
969.998
970.115
970.241
970.376
970.519
970.67
970.828
970.994
971.168
971.348
971.534
971.726
971.923
972.126
972.335
972.548
972.766
972.989
973.217
973.449
973.686
973.928
974.175
974.427
974.685
974.948
975.218
975.494
975.776
976.066
976.363
976.668
976.98
977.301
977.628
977.964
978.308
978.658
979.017
979.382
979.753
980.131
980.514
980.901
981.292
981.686
982.082
982.479
982.877
983.273
983.669
984.061
984.45
984.834
985.212
985.584
985.948
986.305
986.651
986.989
987.315
987.63
987.934
988.225
988.503
988.768
989.018
989.255
989.477
989.684
989.877
990.055
990.218
990.366
990.499
990.618
990.721
990.811
990.885
990.945
990.991
991.021
991.037
991.038
991.023
990.992
990.944
990.88
990.797
990.694
990.571
990.427
990.261
990.071
989.856
989.616
989.35
989.058
988.739
988.395
988.025
987.631
987.214
986.778
986.323
985.853
985.371
984.881
984.385
983.888
983.393
982.904
982.424
981.957
981.507
981.075
980.666
980.281
979.922
979.593
979.293
979.025
978.789
978.585
978.415
978.277
978.172
978.098
978.054
978.039
978.051
978.088
978.147
978.226
978.321
978.431
978.552
978.681
978.815
978.951
979.086
979.216
979.339
979.453
979.556
979.643
979.715
979.769
979.805
979.821
979.816
979.791
979.744
979.677
979.589
979.482
979.355
979.211
979.051
978.873
978.681
978.479
978.26
978.026
977.79
977.545
977.272
977
976.749
976.458
976.139
975.885
975.625
975.293
975.023
974.832
974.598
974.389
974.3
974.275
974.327
1014.84
1014.79
1014.71
1014.58
1014.41
1014.28
1014.06
1013.82
1013.63
1013.39
1013.13
1012.9
1012.67
1012.41
1012.16
1011.93
1011.68
1011.42
1011.18
1010.93
1010.67
1010.42
1010.16
1009.9
1009.63
1009.35
1009.07
1008.78
1008.48
1008.18
1007.86
1007.53
1007.19
1006.84
1006.48
1006.1
1005.7
1005.29
1004.86
1004.42
1003.95
1003.47
1002.96
1002.43
1001.88
1001.31
1000.71
1000.09
999.442
998.771
998.076
997.356
996.613
995.846
995.056
994.245
993.414
992.565
991.699
990.819
989.928
989.027
988.121
987.212
986.304
985.401
984.504
983.62
982.75
981.897
981.066
980.259
979.478
978.727
978.005
977.316
976.66
976.037
975.448
974.895
974.374
973.888
973.433
973.011
972.619
972.256
971.921
971.612
971.328
971.068
970.83
970.612
970.413
970.232
970.068
969.919
969.785
969.664
969.556
969.461
969.377
969.304
969.242
969.19
969.148
969.116
969.095
969.083
969.081
969.089
969.107
969.134
969.173
969.221
969.279
969.347
969.426
969.515
969.615
969.724
969.843
969.972
970.111
970.258
970.415
970.58
970.754
970.936
971.125
971.322
971.525
971.734
971.951
972.172
972.399
972.632
972.869
973.112
973.359
973.611
973.868
974.129
974.396
974.668
974.945
975.228
975.517
975.812
976.113
976.421
976.736
977.057
977.386
977.721
978.064
978.413
978.769
979.132
979.5
979.874
980.254
980.638
981.026
981.416
981.809
982.204
982.6
982.995
983.389
983.781
984.169
984.554
984.934
985.308
985.675
986.035
986.386
986.729
987.061