# vtk DataFile Version 2.0
LBE mesh
ASCII
DATASET STRUCTURED_POINTS
DIMENSIONS 300 100 1
ASPECT_RATIO 1 1 1
ORIGIN 0 0 0
POINT_DATA 30000
SCALARS rho double 1
LOOKUP_TABLE default
1045.83
1014.04
1013.34
1019.88
1018.07
1014.17
1014
1014.55
1013.8
1013.03
1012.89
1012.75
1012.41
1012.13
1011.96
1011.77
1011.56
1011.36
1011.19
1011
1010.82
1010.63
1010.45
1010.26
1010.07
1009.87
1009.67
1009.46
1009.25
1009.03
1008.8
1008.56
1008.31
1008.05
1007.78
1007.5
1007.21
1006.91
1006.59
1006.26
1005.91
1005.55
1005.17
1004.78
1004.37
1003.94
1003.49
1003.03
1002.55
1002.05
1001.54
1001
1000.45
999.881
999.295
998.693
998.075
997.441
996.795
996.135
995.464
994.783
994.093
993.396
992.693
991.987
991.279
990.57
989.863
989.16
988.461
987.769
987.086
986.413
985.751
985.103
984.469
983.85
983.248
982.664
982.098
981.55
981.023
980.514
980.026
979.558
979.109
978.681
978.272
977.883
977.513
977.161
976.828
976.513
976.215
975.933
975.668
975.418
975.183
974.962
974.756
974.561
974.38
974.211
974.054
973.907
973.771
973.645
973.528
973.421
973.322
973.231
973.147
973.071
973.002
972.94
972.884
972.833
972.788
972.749
972.714
972.683
972.657
972.635
972.616
972.601
972.588
972.579
972.572
972.568
972.565
972.565
972.566
972.568
972.573
972.578
972.585
972.592
972.601
972.61
972.621
972.633
972.646
972.66
972.676
972.694
972.714
972.737
972.763
972.792
972.826
972.864
972.907
972.957
973.013
973.077
973.149
973.231
973.321
973.424
973.536
973.662
973.799
973.949
974.113
974.29
974.481
974.685
974.903
975.134
975.378
975.634
975.902
976.182
976.471
976.769
977.076
977.389
977.709
978.033
978.361
978.691
979.022
979.353
979.683
980.011
980.335
980.654
980.968
981.276
981.575
981.867
982.15
982.424
982.688
982.941
983.182
983.413
983.632
983.839
984.034
984.216
984.387
984.545
984.69
984.824
984.945
985.054
985.151
985.236
985.308
985.369
985.418
985.454
985.478
985.489
985.487
985.473
985.444
985.402
985.346
985.275
985.188
985.085
984.967
984.832
984.68
984.511
984.325
984.122
983.902
983.665
983.412
983.143
982.859
982.561
982.25
981.928
981.596
981.254
980.905
980.552
980.196
979.838
979.482
979.128
978.78
978.439
978.107
977.788
977.482
977.191
976.918
976.663
976.427
976.214
976.022
975.853
975.707
975.584
975.485
975.408
975.354
975.32
975.307
975.312
975.333
975.369
975.418
975.477
975.543
975.614
975.687
975.759
975.828
975.889
975.94
975.978
976
976.004
975.987
975.942
975.869
975.773
975.639
975.451
975.242
975.019
974.673
974.238
973.937
973.506
972.503
971.818
971.955
970.041
966.356
968.467
969.333
946.282
1028.67
1025.13
1021.05
1015.86
1016.07
1016.26
1015.11
1013.97
1013.76
1013.54
1013.09
1012.72
1012.51
1012.29
1012.03
1011.81
1011.62
1011.43
1011.23
1011.04
1010.85
1010.66
1010.47
1010.28
1010.08
1009.88
1009.68
1009.47
1009.25
1009.02
1008.79
1008.55
1008.3
1008.04
1007.77
1007.48
1007.19
1006.88
1006.56
1006.23
1005.88
1005.51
1005.13
1004.74
1004.33
1003.9
1003.45
1002.99
1002.51
1002.01
1001.49
1000.95
1000.4
999.833
999.247
998.644
998.026
997.394
996.748
996.089
995.42
994.74
994.052
993.357
992.657
991.953
991.247
990.541
989.836
989.136
988.44
987.751
987.072
986.402
985.744
985.098
984.468
983.852
983.254
982.672
982.109
981.565
981.04
980.534
980.048
979.582
979.136
978.709
978.303
977.915
977.547
977.197
976.865
976.551
976.254
975.974
975.709
975.46
975.226
975.006
974.799
974.606
974.425
974.257
974.1
973.954
973.818
973.692
973.575
973.468
973.369
973.278
973.195
973.119
973.051
972.988
972.932
972.882
972.837
972.797
972.763
972.732
972.706
972.684
972.665
972.65
972.637
972.627
972.621
972.616
972.613
972.612
972.613
972.615
972.618
972.623
972.629
972.636
972.644
972.653
972.663
972.675
972.687
972.701
972.716
972.733
972.753
972.775
972.8
972.829
972.861
972.899
972.941
972.99
973.045
973.108
973.179
973.259
973.349
973.45
973.561
973.685
973.82
973.969
974.131
974.306
974.495
974.697
974.912
975.141
975.383
975.637
975.903
976.18
976.467
976.763
977.068
977.38
977.697
978.02
978.346
978.675
979.005
979.335
979.664
979.99
980.313
980.632
980.945
981.252
981.552
981.843
982.126
982.4
982.663
982.917
983.159
983.39
983.609
983.816
984.011
984.194
984.365
984.524
984.67
984.804
984.925
985.035
985.132
985.217
985.291
985.352
985.401
985.438
985.462
985.474
985.473
985.459
985.432
985.391
985.335
985.265
985.18
985.08
984.963
984.83
984.681
984.514
984.331
984.13
983.912
983.678
983.428
983.161
982.88
982.585
982.276
981.956
981.625
981.285
980.938
980.586
980.23
979.873
979.517
979.164
978.815
978.474
978.142
977.821
977.513
977.221
976.945
976.688
976.45
976.233
976.038
975.866
975.717
975.591
975.488
975.407
975.349
975.312
975.295
975.296
975.314
975.346
975.391
975.447
975.51
975.578
975.648
975.717
975.783
975.841
975.89
975.926
975.946
975.947
975.926
975.882
975.808
975.7
975.564
975.394
975.165
974.888
974.604
974.231
973.702
973.205
972.767
971.799
970.545
970.087
969.016
965.012
961.393
959.567
1020.54
1025.39
1020.73
1016.44
1016.71
1016.46
1015.1
1014.18
1014.01
1013.69
1013.19
1012.84
1012.62
1012.38
1012.11
1011.89
1011.69
1011.48
1011.28
1011.08
1010.89
1010.7
1010.5
1010.31
1010.11
1009.9
1009.69
1009.48
1009.26
1009.03
1008.8
1008.55
1008.3
1008.03
1007.76
1007.48
1007.18
1006.87
1006.55
1006.21
1005.86
1005.49
1005.11
1004.72
1004.3
1003.87
1003.42
1002.96
1002.48
1001.97
1001.46
1000.92
1000.37
999.796
999.209
998.605
997.986
997.353
996.707
996.047
995.377
994.697
994.009
993.314
992.614
991.91
991.205
990.499
989.796
989.096
988.402
987.715
987.037
986.369
985.713
985.07
984.442
983.829
983.233
982.654
982.093
981.552
981.029
980.526
980.043
979.58
979.136
978.712
978.308
977.923
977.556
977.208
976.878
976.567
976.271
975.993
975.73
975.482
975.249
975.03
974.825
974.633
974.453
974.286
974.13
973.984
973.849
973.724
973.608
973.502
973.403
973.313
973.231
973.156
973.088
973.026
972.97
972.92
972.876
972.837
972.803
972.773
972.747
972.725
972.706
972.691
972.679
972.669
972.662
972.658
972.655
972.654
972.654
972.656
972.66
972.664
972.67
972.676
972.684
972.692
972.702
972.712
972.724
972.737
972.752
972.768
972.786
972.807
972.832
972.859
972.891
972.927
972.968
973.015
973.069
973.13
973.199
973.278
973.366
973.464
973.574
973.695
973.829
973.975
974.135
974.308
974.495
974.695
974.909
975.137
975.377
975.629
975.894
976.169
976.455
976.751
977.054
977.365
977.682
978.004
978.33
978.658
978.988
979.318
979.647
979.973
980.297
980.616
980.929
981.237
981.537
981.829
982.112
982.386
982.651
982.904
983.147
983.379
983.598
983.806
984.002
984.186
984.357
984.516
984.663
984.797
984.92
985.03
985.127
985.213
985.287
985.348
985.398
985.435
985.46
985.473
985.473
985.46
985.435
985.395
985.341
985.273
985.19
985.092
984.978
984.847
984.7
984.536
984.355
984.156
983.941
983.709
983.461
983.196
982.917
982.623
982.315
981.995
981.665
981.326
980.978
980.626
980.269
979.911
979.553
979.197
978.846
978.502
978.167
977.844
977.533
977.237
976.958
976.696
976.455
976.235
976.036
975.86
975.708
975.578
975.472
975.388
975.327
975.287
975.267
975.266
975.282
975.313
975.357
975.411
975.473
975.541
975.61
975.679
975.745
975.804
975.853
975.889
975.91
975.912
975.89
975.846
975.777
975.668
975.523
975.362
975.147
974.842
974.54
974.252
973.712
973.032
972.763
972.183
970.322
969.57
970.501
966.399
961.103
965.319
1020.26
1019.01
1018.51
1019.72
1017.24
1015.16
1015.15
1015.1
1014.22
1013.54
1013.34
1013.11
1012.74
1012.43
1012.22
1012
1011.76
1011.55
1011.35
1011.15
1010.95
1010.75
1010.55
1010.35
1010.15
1009.94
1009.73
1009.51
1009.29
1009.06
1008.82
1008.57
1008.32
1008.05
1007.78
1007.49
1007.19
1006.88
1006.55
1006.22
1005.86
1005.5
1005.11
1004.71
1004.3
1003.86
1003.41
1002.95
1002.46
1001.96
1001.44
1000.9
1000.34
999.768
999.177
998.572
997.95
997.314
996.664
996.003
995.33
994.647
993.956
993.259
992.557
991.851
991.144
990.437
989.733
989.032
988.337
987.65
986.972
986.304
985.649
985.008
984.381
983.769
983.175
982.599
982.041
981.502
980.982
980.482
980.002
979.542
979.102
978.681
978.28
977.898
977.535
977.19
976.863
976.554
976.261
975.985
975.724
975.479
975.248
975.032
974.829
974.638
974.46
974.294
974.139
973.995
973.861
973.737
973.623
973.517
973.42
973.331
973.25
973.175
973.108
973.047
972.992
972.943
972.9
972.862
972.828
972.799
972.774
972.753
972.734
972.72
972.708
972.699
972.693
972.689
972.686
972.686
972.686
972.689
972.692
972.697
972.702
972.709
972.716
972.724
972.733
972.743
972.754
972.766
972.78
972.796
972.813
972.833
972.855
972.882
972.911
972.946
972.985
973.03
973.082
973.141
973.208
973.285
973.37
973.467
973.574
973.694
973.825
973.97
974.127
974.299
974.484
974.682
974.895
975.121
975.361
975.612
975.876
976.151
976.437
976.732
977.036
977.347
977.665
977.988
978.314
978.643
978.974
979.304
979.634
979.962
980.286
980.606
980.921
981.229
981.53
981.824
982.108
982.383
982.649
982.903
983.147
983.379
983.6
983.809
984.005
984.19
984.362
984.522
984.669
984.804
984.926
985.037
985.135
985.221
985.295
985.358
985.408
985.446
985.473
985.486
985.488
985.477
985.453
985.415
985.363
985.297
985.217
985.121
985.009
984.881
984.736
984.575
984.396
984.2
983.987
983.757
983.51
983.246
982.967
982.673
982.366
982.045
981.714
981.373
981.024
980.669
980.309
979.947
979.586
979.227
978.871
978.523
978.184
977.855
977.54
977.239
976.955
976.69
976.444
976.219
976.017
975.837
975.681
975.548
975.439
975.353
975.289
975.248
975.227
975.225
975.24
975.271
975.315
975.371
975.434
975.503
975.574
975.646
975.713
975.775
975.827
975.866
975.889
975.895
975.878
975.834
975.763
975.669
975.53
975.344
975.146
974.909
974.548
974.163
973.869
973.327
972.456
972.052
971.717
969.93
968.427
968.691
968.052
966.549
1020.25
1018.09
1018.05
1017.97
1016.52
1016.14
1015.6
1014.78
1014.2
1013.94
1013.59
1013.17
1012.84
1012.61
1012.36
1012.1
1011.87
1011.66
1011.45
1011.24
1011.03
1010.83
1010.63
1010.42
1010.21
1010
1009.79
1009.57
1009.34
1009.11
1008.87
1008.62
1008.36
1008.09
1007.81
1007.52
1007.22
1006.91
1006.58
1006.24
1005.89
1005.52
1005.13
1004.73
1004.31
1003.87
1003.42
1002.95
1002.46
1001.95
1001.43
1000.88
1000.32
999.746
999.151
998.54
997.913
997.272
996.617
995.95
995.272
994.584
993.888
993.186
992.479
991.768
991.057
990.347
989.639
988.935
988.238
987.549
986.869
986.201
985.545
984.903
984.277
983.667
983.074
982.5
981.945
981.409
980.893
980.396
979.92
979.464
979.028
978.611
978.214
977.836
977.477
977.136
976.813
976.508
976.219
975.946
975.689
975.447
975.219
975.005
974.805
974.616
974.441
974.277
974.124
973.982
973.849
973.727
973.614
973.509
973.414
973.326
973.246
973.172
973.106
973.046
972.993
972.945
972.902
972.865
972.833
972.805
972.781
972.76
972.744
972.73
972.72
972.712
972.706
972.703
972.702
972.702
972.703
972.706
972.71
972.716
972.721
972.728
972.736
972.744
972.753
972.763
972.773
972.785
972.798
972.813
972.829
972.848
972.869
972.894
972.922
972.954
972.992
973.035
973.085
973.142
973.207
973.281
973.364
973.458
973.564
973.681
973.81
973.953
974.109
974.279
974.463
974.661
974.873
975.099
975.338
975.59
975.854
976.129
976.416
976.712
977.017
977.329
977.648
977.972
978.3
978.63
978.963
979.295
979.626
979.956
980.282
980.603
980.92
981.23
981.533
981.828
982.114
982.39
982.657
982.913
983.158
983.391
983.613
983.823
984.02
984.206
984.378
984.539
984.687
984.822
984.945
985.056
985.155
985.242
985.317
985.38
985.431
985.47
985.498
985.513
985.516
985.506
985.484
985.449
985.399
985.336
985.258
985.165
985.055
984.93
984.788
984.629
984.453
984.258
984.046
983.818
983.571
983.308
983.029
982.734
982.425
982.103
981.769
981.425
981.072
980.713
980.349
979.982
979.616
979.25
978.89
978.536
978.19
977.856
977.534
977.228
976.939
976.668
976.417
976.188
975.981
975.797
975.638
975.502
975.391
975.303
975.238
975.196
975.175
975.173
975.19
975.222
975.268
975.326
975.392
975.464
975.539
975.615
975.687
975.753
975.81
975.854
975.882
975.891
975.882
975.845
975.776
975.684
975.566
975.39
975.17
974.961
974.681
974.238
973.874
973.616
972.869
971.986
971.999
971.351
969.333
969.281
969.67
968.331
1018.16
1018.21
1017.82
1016.37
1016.54
1016.42
1015.28
1014.68
1014.55
1014.16
1013.61
1013.28
1013.06
1012.77
1012.47
1012.23
1012.01
1011.79
1011.56
1011.35
1011.15
1010.94
1010.73
1010.52
1010.31
1010.09
1009.88
1009.65
1009.42
1009.19
1008.94
1008.69
1008.43
1008.16
1007.88
1007.59
1007.28
1006.97
1006.64
1006.29
1005.93
1005.56
1005.17
1004.76
1004.34
1003.9
1003.44
1002.97
1002.47
1001.96
1001.43
1000.88
1000.31
999.729
999.127
998.509
997.875
997.226
996.563
995.888
995.202
994.506
993.802
993.092
992.377
991.66
990.942
990.225
989.511
988.802
988.1
987.407
986.724
986.053
985.396
984.753
984.127
983.517
982.927
982.354
981.801
981.268
980.755
980.263
979.791
979.34
978.909
978.497
978.106
977.733
977.379
977.044
976.725
976.425
976.141
975.872
975.619
975.381
975.157
974.947
974.749
974.564
974.392
974.23
974.079
973.939
973.809
973.688
973.576
973.474
973.379
973.292
973.214
973.141
973.076
973.018
972.965
972.919
972.877
972.841
972.81
972.784
972.761
972.742
972.727
972.715
972.706
972.7
972.696
972.694
972.694
972.696
972.699
972.703
972.709
972.716
972.723
972.73
972.739
972.748
972.757
972.767
972.778
972.789
972.802
972.816
972.832
972.85
972.871
972.894
972.921
972.952
972.988
973.029
973.077
973.132
973.195
973.267
973.349
973.441
973.545
973.66
973.788
973.93
974.085
974.254
974.438
974.635
974.847
975.073
975.312
975.565
975.83
976.107
976.395
976.693
976.999
977.313
977.634
977.96
978.29
978.623
978.957
979.292
979.625
979.957
980.285
980.609
980.927
981.239
981.544
981.841
982.128
982.407
982.675
982.932
983.179
983.413
983.636
983.847
984.046
984.232
984.405
984.567
984.716
984.852
984.976
985.087
985.187
985.274
985.35
985.414
985.466
985.506
985.535
985.552
985.556
985.549
985.528
985.495
985.448
985.388
985.312
985.222
985.115
984.993
984.853
984.696
984.522
984.329
984.119
983.891
983.644
983.381
983.1
982.804
982.492
982.167
981.829
981.48
981.122
980.757
980.387
980.014
979.64
979.269
978.901
978.54
978.187
977.846
977.518
977.205
976.909
976.633
976.377
976.143
975.932
975.744
975.581
975.443
975.33
975.241
975.175
975.133
975.113
975.113
975.131
975.166
975.216
975.277
975.348
975.425
975.505
975.586
975.664
975.737
975.799
975.851
975.887
975.903
975.897
975.872
975.818
975.724
975.607
975.473
975.269
975.006
974.787
974.509
974.003
973.598
973.427
972.723
971.774
971.726
971.521
970.481
970.021
970.525
1017.11
1017.53
1017.09
1016.47
1016.32
1015.6
1015.27
1015.05
1014.52
1014.03
1013.78
1013.53
1013.17
1012.86
1012.63
1012.4
1012.15
1011.92
1011.71
1011.49
1011.28
1011.06
1010.86
1010.64
1010.43
1010.21
1009.99
1009.76
1009.53
1009.29
1009.05
1008.79
1008.53
1008.25
1007.97
1007.68
1007.37
1007.05
1006.72
1006.37
1006.01
1005.63
1005.23
1004.82
1004.4
1003.95
1003.49
1003
1002.5
1001.98
1001.44
1000.89
1000.31
999.718
999.107
998.479
997.834
997.175
996.502
995.816
995.119
994.412
993.697
992.976
992.251
991.524
990.796
990.07
989.348
988.632
987.923
987.224
986.536
985.861
985.201
984.557
983.929
983.32
982.73
982.159
981.609
981.08
980.571
980.083
979.616
979.17
978.745
978.34
977.954
977.588
977.24
976.911
976.599
976.304
976.025
975.763
975.515
975.281
975.062
974.855
974.662
974.48
974.31
974.152
974.004
973.865
973.737
973.618
973.508
973.407
973.313
973.228
973.15
973.079
973.015
972.957
972.905
972.859
972.819
972.785
972.755
972.73
972.708
972.691
972.678
972.668
972.661
972.657
972.655
972.655
972.658
972.662
972.667
972.674
972.682
972.69
972.699
972.709
972.719
972.73
972.741
972.752
972.764
972.776
972.79
972.804
972.82
972.838
972.858
972.881
972.908
972.938
972.973
973.013
973.06
973.114
973.176
973.246
973.327
973.418
973.521
973.635
973.763
973.904
974.059
974.228
974.411
974.609
974.822
975.049
975.29
975.544
975.811
976.09
976.379
976.679
976.988
977.304
977.627
977.956
978.288
978.624
978.961
979.297
979.633
979.966
980.297
980.623
980.944
981.258
981.564
981.863
982.152
982.432
982.702
982.961
983.208
983.444
983.669
983.881
984.08
984.268
984.442
984.605
984.754
984.891
985.016
985.129
985.229
985.317
985.394
985.459
985.512
985.553
985.584
985.602
985.608
985.602
985.584
985.553
985.509
985.451
985.378
985.29
985.186
985.066
984.929
984.775
984.602
984.411
984.201
983.973
983.726
983.461
983.179
982.879
982.564
982.234
981.891
981.536
981.172
980.8
980.423
980.042
979.661
979.281
978.905
978.536
978.175
977.827
977.491
977.171
976.869
976.586
976.325
976.086
975.87
975.679
975.513
975.373
975.258
975.168
975.102
975.061
975.041
975.044
975.065
975.104
975.158
975.224
975.3
975.384
975.471
975.559
975.644
975.724
975.796
975.854
975.899
975.926
975.93
975.91
975.87
975.798
975.68
975.548
975.4
975.163
974.883
974.683
974.375
973.836
973.547
973.387
972.636
972.077
972.161
971.729
971.378
971.839
1016.84
1016.56
1016.36
1016.52
1015.92
1015.37
1015.31
1014.91
1014.43
1014.18
1013.92
1013.57
1013.26
1013.04
1012.79
1012.53
1012.29
1012.08
1011.86
1011.64
1011.42
1011.21
1011
1010.79
1010.57
1010.35
1010.13
1009.9
1009.66
1009.42
1009.17
1008.92
1008.65
1008.37
1008.09
1007.79
1007.48
1007.16
1006.82
1006.47
1006.1
1005.72
1005.32
1004.9
1004.47
1004.02
1003.55
1003.06
1002.55
1002.02
1001.47
1000.9
1000.32
999.712
999.089
998.449
997.792
997.12
996.433
995.734
995.023
994.303
993.574
992.84
992.102
991.361
990.621
989.884
989.151
988.425
987.707
987.001
986.306
985.626
984.961
984.314
983.685
983.076
982.486
981.917
981.369
980.844
980.339
979.857
979.396
978.956
978.537
978.139
977.761
977.402
977.061
976.739
976.434
976.146
975.874
975.618
975.375
975.147
974.933
974.731
974.542
974.364
974.197
974.042
973.896
973.761
973.634
973.517
973.408
973.307
973.215
973.13
973.053
972.982
972.918
972.861
972.81
972.765
972.726
972.692
972.663
972.639
972.619
972.603
972.591
972.583
972.579
972.577
972.578
972.581
972.587
972.594
972.602
972.612
972.623
972.635
972.647
972.66
972.673
972.687
972.701
972.715
972.729
972.744
972.759
972.775
972.792
972.811
972.833
972.856
972.883
972.914
972.949
972.989
973.036
973.09
973.152
973.222
973.302
973.393
973.496
973.611
973.739
973.88
974.036
974.206
974.391
974.59
974.804
975.033
975.275
975.532
975.801
976.082
976.374
976.676
976.987
977.306
977.632
977.963
978.298
978.635
978.974
979.313
979.651
979.987
980.32
980.647
980.97
981.286
981.594
981.894
982.185
982.466
982.737
982.998
983.247
983.484
983.71
983.923
984.124
984.312
984.488
984.651
984.802
984.94
985.065
985.179
985.28
985.369
985.447
985.513
985.567
985.61
985.641
985.661
985.669
985.665
985.649
985.621
985.579
985.523
985.453
985.368
985.266
985.149
985.014
984.861
984.69
984.499
984.29
984.061
983.813
983.546
983.261
982.958
982.638
982.303
981.954
981.593
981.221
980.841
980.456
980.067
979.677
979.288
978.903
978.525
978.156
977.799
977.456
977.129
976.82
976.531
976.264
976.02
975.8
975.605
975.436
975.293
975.177
975.086
975.021
974.98
974.963
974.968
974.993
975.036
975.095
975.167
975.25
975.34
975.435
975.531
975.626
975.715
975.796
975.866
975.919
975.956
975.975
975.966
975.93
975.879
975.792
975.652
975.507
975.36
975.102
974.803
974.637
974.353
973.819
973.571
973.494
972.992
972.575
972.67
972.759
972.731
1016.38
1016.2
1016.11
1015.95
1015.59
1015.48
1015.11
1014.7
1014.52
1014.26
1013.9
1013.62
1013.41
1013.16
1012.89
1012.66
1012.45
1012.23
1012
1011.79
1011.58
1011.37
1011.15
1010.94
1010.73
1010.5
1010.28
1010.05
1009.82
1009.57
1009.32
1009.06
1008.8
1008.52
1008.23
1007.93
1007.61
1007.29
1006.95
1006.59
1006.22
1005.83
1005.42
1005
1004.56
1004.1
1003.62
1003.12
1002.6
1002.07
1001.51
1000.93
1000.33
999.711
999.075
998.42
997.748
997.06
996.358
995.643
994.915
994.178
993.433
992.683
991.928
991.173
990.418
989.667
988.921
988.183
987.455
986.738
986.036
985.349
984.679
984.028
983.397
982.787
982.197
981.63
981.085
980.563
980.064
979.587
979.133
978.7
978.289
977.898
977.528
977.177
976.845
976.531
976.234
975.953
975.689
975.439
975.204
974.982
974.773
974.576
974.391
974.218
974.055
973.902
973.759
973.626
973.501
973.385
973.277
973.177
973.085
973
972.922
972.852
972.788
972.73
972.679
972.634
972.594
972.561
972.532
972.509
972.489
972.475
972.465
972.459
972.456
972.457
972.461
972.467
972.476
972.487
972.499
972.513
972.529
972.545
972.561
972.579
972.596
972.615
972.633
972.651
972.669
972.688
972.707
972.726
972.747
972.769
972.793
972.819
972.848
972.88
972.918
972.96
973.008
973.063
973.127
973.198
973.28
973.373
973.477
973.593
973.722
973.865
974.023
974.195
974.382
974.583
974.799
975.03
975.275
975.534
975.806
976.089
976.383
976.688
977.002
977.323
977.651
977.985
978.321
978.661
979.002
979.343
979.682
980.02
980.354
980.683
981.006
981.323
981.633
981.934
982.226
982.509
982.781
983.042
983.292
983.53
983.757
983.971
984.173
984.362
984.539
984.703
984.855
984.994
985.121
985.235
985.338
985.428
985.507
985.574
985.63
985.674
985.707
985.729
985.738
985.736
985.722
985.695
985.655
985.602
985.534
985.451
985.353
985.237
985.104
984.953
984.782
984.593
984.383
984.153
983.904
983.635
983.346
983.039
982.714
982.373
982.017
981.649
981.269
980.881
980.486
980.088
979.688
979.29
978.896
978.509
978.132
977.766
977.415
977.08
976.764
976.468
976.195
975.946
975.722
975.523
975.351
975.206
975.088
974.997
974.932
974.893
974.878
974.886
974.915
974.963
975.027
975.106
975.196
975.295
975.398
975.504
975.608
975.707
975.799
975.88
975.947
975.994
976.025
976.035
976.013
975.965
975.905
975.806
975.65
975.507
975.36
975.089
974.819
974.687
974.401
973.986
973.851
973.729
973.441
973.398
973.49
973.669
1015.85
1015.91
1015.85
1015.54
1015.46
1015.31
1014.92
1014.72
1014.51
1014.19
1013.94
1013.73
1013.48
1013.22
1013.01
1012.8
1012.58
1012.36
1012.15
1011.94
1011.73
1011.52
1011.31
1011.1
1010.89
1010.67
1010.44
1010.21
1009.98
1009.74
1009.48
1009.22
1008.96
1008.67
1008.38
1008.08
1007.76
1007.43
1007.09
1006.73
1006.35
1005.96
1005.55
1005.12
1004.67
1004.2
1003.71
1003.21
1002.68
1002.13
1001.55
1000.96
1000.35
999.716
999.064
998.393
997.703
996.998
996.277
995.543
994.796
994.04
993.276
992.506
991.733
990.96
990.188
989.42
988.659
987.907
987.166
986.439
985.727
985.032
984.356
983.701
983.066
982.455
981.866
981.301
980.759
980.241
979.748
979.277
978.83
978.405
978.002
977.621
977.26
976.918
976.595
976.29
976.001
975.73
975.473
975.231
975.003
974.788
974.585
974.394
974.214
974.045
973.885
973.736
973.595
973.464
973.34
973.225
973.118
973.018
972.926
972.84
972.762
972.69
972.625
972.566
972.514
972.468
972.427
972.392
972.363
972.339
972.321
972.307
972.298
972.293
972.292
972.295
972.301
972.311
972.323
972.339
972.356
972.375
972.395
972.417
972.439
972.462
972.486
972.51
972.535
972.559
972.583
972.608
972.632
972.657
972.683
972.71
972.739
972.77
972.803
972.84
972.881
972.927
972.979
973.038
973.104
973.179
973.264
973.36
973.467
973.586
973.719
973.865
974.025
974.2
974.39
974.595
974.814
975.047
975.295
975.557
975.831
976.117
976.414
976.721
977.037
977.36
977.69
978.025
978.363
978.704
979.046
979.388
979.728
980.066
980.401
980.731
981.055
981.372
981.682
981.984
982.276
982.559
982.831
983.093
983.344
983.582
983.809
984.024
984.227
984.417
984.594
984.759
984.912
985.052
985.18
985.296
985.399
985.491
985.571
985.64
985.697
985.743
985.777
985.8
985.812
985.811
985.799
985.774
985.736
985.684
985.619
985.538
985.441
985.328
985.196
985.046
984.877
984.687
984.477
984.247
983.995
983.723
983.431
983.119
982.789
982.442
982.079
981.703
981.314
980.917
980.513
980.106
979.697
979.289
978.885
978.489
978.103
977.728
977.369
977.026
976.703
976.401
976.122
975.867
975.638
975.436
975.261
975.113
974.994
974.902
974.838
974.8
974.787
974.798
974.832
974.885
974.956
975.041
975.139
975.247
975.36
975.475
975.59
975.702
975.805
975.898
975.979
976.042
976.083
976.106
976.11
976.076
976.018
975.956
975.849
975.682
975.549
975.417
975.151
974.914
974.82
974.598
974.294
974.219
974.219
974.119
974.149
974.472
1015.56
1015.59
1015.51
1015.4
1015.29
1015.02
1014.87
1014.71
1014.41
1014.18
1014.01
1013.77
1013.52
1013.32
1013.12
1012.9
1012.69
1012.49
1012.29
1012.08
1011.88
1011.68
1011.47
1011.26
1011.05
1010.83
1010.61
1010.38
1010.15
1009.91
1009.66
1009.4
1009.13
1008.85
1008.55
1008.25
1007.93
1007.6
1007.25
1006.88
1006.5
1006.1
1005.69
1005.25
1004.79
1004.32
1003.82
1003.3
1002.76
1002.2
1001.61
1001
1000.38
999.726
999.056
998.366
997.658
996.932
996.19
995.434
994.666
993.888
993.102
992.311
991.517
990.722
989.931
989.144
988.366
987.598
986.842
986.102
985.379
984.675
983.993
983.332
982.695
982.082
981.493
980.93
980.393
979.88
979.392
978.929
978.49
978.074
977.681
977.309
976.958
976.627
976.314
976.019
975.741
975.479
975.231
974.998
974.777
974.569
974.373
974.188
974.013
973.849
973.693
973.547
973.409
973.279
973.156
973.042
972.934
972.834
972.74
972.654
972.573
972.5
972.432
972.371
972.317
972.268
972.226
972.189
972.158
972.133
972.114
972.099
972.09
972.086
972.086
972.091
972.1
972.112
972.128
972.148
972.169
972.194
972.22
972.248
972.278
972.308
972.34
972.372
972.404
972.436
972.469
972.502
972.534
972.568
972.601
972.636
972.672
972.71
972.751
972.794
972.842
972.894
972.953
973.017
973.089
973.169
973.26
973.36
973.472
973.596
973.733
973.884
974.048
974.227
974.421
974.629
974.852
975.089
975.34
975.604
975.881
976.17
976.469
976.778
977.095
977.42
977.751
978.086
978.425
978.767
979.109
979.451
979.791
980.129
980.463
980.792
981.116
981.432
981.742
982.042
982.334
982.617
982.888
983.15
983.4
983.639
983.865
984.08
984.283
984.473
984.651
984.817
984.97
985.111
985.24
985.357
985.461
985.554
985.636
985.706
985.764
985.812
985.848
985.872
985.886
985.887
985.876
985.853
985.817
985.767
985.704
985.625
985.529
985.417
985.287
985.138
984.969
984.78
984.57
984.338
984.084
983.809
983.513
983.197
982.861
982.507
982.138
981.753
981.357
980.951
980.538
980.121
979.702
979.285
978.872
978.467
978.071
977.688
977.32
976.97
976.639
976.33
976.045
975.785
975.551
975.344
975.166
975.016
974.895
974.803
974.739
974.702
974.692
974.706
974.744
974.803
974.88
974.973
975.08
975.196
975.32
975.446
975.573
975.696
975.813
975.92
976.013
976.093
976.152
976.186
976.205
976.203
976.16
976.098
976.037
975.925
975.764
975.651
975.526
975.297
975.124
975.041
974.881
974.737
974.725
974.75
974.839
975.086
1015.34
1015.31
1015.26
1015.24
1015.08
1014.91
1014.8
1014.58
1014.38
1014.22
1014
1013.78
1013.6
1013.41
1013.2
1013
1012.81
1012.62
1012.42
1012.22
1012.03
1011.83
1011.63
1011.42
1011.21
1011
1010.78
1010.56
1010.33
1010.08
1009.84
1009.58
1009.31
1009.03
1008.73
1008.43
1008.11
1007.77
1007.42
1007.05
1006.67
1006.26
1005.84
1005.39
1004.93
1004.44
1003.94
1003.41
1002.85
1002.28
1001.68
1001.05
1000.41
999.741
999.051
998.341
997.611
996.863
996.098
995.318
994.525
993.723
992.912
992.097
991.278
990.461
989.647
988.839
988.041
987.254
986.483
985.728
984.994
984.28
983.589
982.923
982.283
981.668
981.081
980.52
979.986
979.48
978.999
978.545
978.115
977.709
977.327
976.966
976.627
976.307
976.005
975.722
975.454
975.203
974.966
974.741
974.53
974.33
974.141
973.962
973.793
973.633
973.482
973.338
973.202
973.074
972.952
972.838
972.73
972.628
972.533
972.444
972.361
972.285
972.215
972.15
972.092
972.04
971.994
971.955
971.921
971.893
971.871
971.856
971.845
971.841
971.841
971.847
971.857
971.873
971.892
971.915
971.942
971.972
972.005
972.04
972.077
972.116
972.157
972.198
972.24
972.283
972.326
972.369
972.412
972.456
972.5
972.546
972.592
972.641
972.691
972.745
972.801
972.863
972.93
973.003
973.083
973.172
973.269
973.377
973.496
973.627
973.77
973.927
974.097
974.281
974.48
974.693
974.919
975.16
975.414
975.681
975.961
976.251
976.552
976.862
977.181
977.506
977.837
978.173
978.511
978.852
979.193
979.534
979.873
980.209
980.541
980.869
981.19
981.505
981.812
982.111
982.401
982.682
982.952
983.212
983.46
983.697
983.923
984.137
984.339
984.529
984.707
984.872
985.026
985.167
985.297
985.414
985.52
985.614
985.697
985.768
985.828
985.877
985.915
985.941
985.956
985.959
985.95
985.929
985.894
985.846
985.784
985.706
985.613
985.502
985.373
985.225
985.056
984.867
984.656
984.422
984.167
983.889
983.59
983.269
982.928
982.568
982.192
981.8
981.396
980.982
980.56
980.133
979.705
979.279
978.857
978.442
978.037
977.646
977.27
976.912
976.574
976.258
975.967
975.701
975.462
975.251
975.069
974.917
974.794
974.701
974.637
974.602
974.594
974.611
974.653
974.717
974.801
974.902
975.018
975.144
975.277
975.416
975.555
975.692
975.823
975.945
976.053
976.146
976.224
976.28
976.309
976.325
976.319
976.27
976.208
976.153
976.044
975.897
975.806
975.702
975.521
975.402
975.36
975.277
975.219
975.279
975.393
975.592
1015.12
1015.12
1015.1
1015.03
1014.92
1014.85
1014.68
1014.51
1014.38
1014.2
1014
1013.83
1013.66
1013.46
1013.28
1013.1
1012.92
1012.72
1012.54
1012.36
1012.17
1011.97
1011.78
1011.58
1011.38
1011.17
1010.95
1010.73
1010.5
1010.26
1010.02
1009.76
1009.49
1009.21
1008.92
1008.61
1008.29
1007.95
1007.6
1007.23
1006.84
1006.43
1006
1005.55
1005.08
1004.58
1004.06
1003.52
1002.96
1002.37
1001.75
1001.11
1000.45
999.76
999.049
998.316
997.563
996.79
996
995.193
994.374
993.544
992.706
991.863
991.018
990.175
989.336
988.504
987.684
986.877
986.088
985.317
984.568
983.844
983.145
982.473
981.829
981.213
980.627
980.07
979.541
979.042
978.57
978.125
977.706
977.312
976.941
976.593
976.267
975.96
975.671
975.4
975.145
974.905
974.679
974.465
974.263
974.072
973.891
973.719
973.556
973.401
973.253
973.113
972.979
972.852
972.732
972.617
972.508
972.405
972.307
972.216
972.13
972.049
971.975
971.906
971.844
971.787
971.737
971.693
971.655
971.623
971.598
971.579
971.567
971.56
971.56
971.565
971.577
971.594
971.616
971.643
971.674
971.71
971.749
971.792
971.838
971.886
971.937
971.989
972.043
972.097
972.153
972.209
972.266
972.323
972.38
972.439
972.499
972.561
972.625
972.691
972.76
972.834
972.913
972.998
973.089
973.188
973.296
973.414
973.542
973.681
973.833
973.997
974.174
974.365
974.569
974.787
975.019
975.264
975.521
975.792
976.073
976.365
976.667
976.978
977.297
977.622
977.952
978.286
978.623
978.962
979.301