# vtk DataFile Version 2.0
LBE mesh
ASCII
DATASET STRUCTURED_POINTS
DIMENSIONS 300 100 1
ASPECT_RATIO 1 1 1
ORIGIN 0 0 0
POINT_DATA 30000
SCALARS rho double 1
LOOKUP_TABLE default
1046.01
1014.21
1013.47
1019.96
1018.12
1014.18
1013.97
1014.48
1013.69
1012.88
1012.7
1012.53
1012.14
1011.82
1011.61
1011.38
1011.13
1010.89
1010.68
1010.45
1010.22
1010
1009.77
1009.54
1009.31
1009.07
1008.82
1008.57
1008.31
1008.04
1007.76
1007.47
1007.17
1006.86
1006.54
1006.2
1005.85
1005.48
1005.11
1004.71
1004.3
1003.87
1003.43
1002.97
1002.49
1001.99
1001.48
1000.94
1000.39
999.819
999.229
998.622
997.997
997.354
996.694
996.018
995.328
994.623
993.905
993.176
992.437
991.688
990.934
990.173
989.409
988.644
987.879
987.116
986.358
985.607
984.864
984.131
983.409
982.702
982.01
981.334
980.677
980.039
979.421
978.824
978.248
977.696
977.166
976.658
976.174
975.712
975.274
974.857
974.464
974.092
973.741
973.411
973.102
972.813
972.542
972.29
972.056
971.839
971.639
971.455
971.286
971.133
970.993
970.868
970.756
970.657
970.571
970.496
970.434
970.382
970.342
970.312
970.293
970.284
970.283
970.293
970.312
970.34
970.376
970.421
970.474
970.535
970.604
970.681
970.765
970.856
970.955
971.06
971.172
971.291
971.417
971.548
971.686
971.831
971.981
972.137
972.299
972.467
972.64
972.818
973.002
973.192
973.387
973.587
973.791
974.002
974.217
974.436
974.661
974.89
975.124
975.362
975.605
975.851
976.102
976.357
976.615
976.877
977.141
977.409
977.679
977.951
978.225
978.501
978.777
979.054
979.331
979.608
979.883
980.158
980.431
980.701
980.969
981.233
981.493
981.749
982
982.245
982.484
982.717
982.944
983.163
983.374
983.577
983.771
983.957
984.134
984.302
984.46
984.608
984.747
984.875
984.993
985.101
985.198
985.283
985.359
985.423
985.476
985.518
985.549
985.568
985.574
985.569
985.551
985.52
985.477
985.42
985.35
985.266
985.168
985.057
984.931
984.792
984.638
984.471
984.29
984.096
983.889
983.669
983.438
983.197
982.945
982.685
982.416
982.141
981.86
981.575
981.288
981
980.712
980.427
980.147
979.872
979.606
979.348
979.102
978.869
978.651
978.448
978.263
978.097
977.951
977.826
977.723
977.642
977.584
977.549
977.538
977.548
977.583
977.639
977.716
977.814
977.932
978.067
978.22
978.388
978.57
978.764
978.968
979.181
979.401
979.627
979.856
980.085
980.315
980.542
980.765
980.983
981.193
981.394
981.584
981.762
981.927
982.075
982.208
982.322
982.415
982.488
982.539
982.56
982.555
982.529
982.465
982.347
982.214
982.065
981.789
981.425
981.201
980.833
979.864
979.221
979.411
977.464
973.63
975.709
976.538
952.723
1028.85
1025.28
1021.17
1015.94
1016.12
1016.27
1015.08
1013.9
1013.66
1013.39
1012.9
1012.49
1012.25
1011.98
1011.69
1011.42
1011.19
1010.96
1010.72
1010.49
1010.26
1010.03
1009.8
1009.56
1009.32
1009.08
1008.83
1008.57
1008.31
1008.03
1007.75
1007.46
1007.16
1006.84
1006.52
1006.18
1005.83
1005.46
1005.08
1004.68
1004.27
1003.84
1003.39
1002.93
1002.45
1001.95
1001.43
1000.9
1000.34
999.773
999.182
998.574
997.948
997.305
996.646
995.97
995.28
994.576
993.859
993.131
992.393
991.647
990.894
990.135
989.374
988.611
987.849
987.089
986.334
985.585
984.845
984.116
983.398
982.694
982.005
981.333
980.679
980.044
979.429
978.835
978.263
977.713
977.186
976.681
976.199
975.74
975.303
974.889
974.497
974.127
973.778
973.449
973.141
972.852
972.583
972.332
972.098
971.882
971.682
971.498
971.33
971.177
971.038
970.913
970.801
970.703
970.616
970.542
970.48
970.428
970.388
970.358
970.339
970.329
970.329
970.339
970.357
970.385
970.421
970.466
970.519
970.579
970.648
970.724
970.808
970.899
970.997
971.102
971.214
971.332
971.457
971.588
971.725
971.869
972.018
972.173
972.335
972.501
972.673
972.851
973.034
973.223
973.416
973.615
973.818
974.027
974.241
974.46
974.683
974.911
975.143
975.38
975.622
975.867
976.117
976.37
976.627
976.887
977.151
977.417
977.686
977.957
978.23
978.504
978.779
979.055
979.331
979.606
979.881
980.155
980.427
980.697
980.963
981.227
981.486
981.741
981.992
982.236
982.475
982.708
982.934
983.152
983.363
983.566
983.76
983.946
984.123
984.29
984.448
984.596
984.734
984.863
984.98
985.088
985.185
985.271
985.346
985.411
985.464
985.505
985.536
985.555
985.562
985.557
985.539
985.51
985.467
985.411
985.342
985.259
985.163
985.052
984.929
984.791
984.639
984.473
984.294
984.102
983.897
983.68
983.451
983.212
982.962
982.703
982.437
982.163
981.884
981.601
981.315
981.028
980.742
980.458
980.178
979.903
979.637
979.379
979.132
978.899
978.679
978.476
978.289
978.122
977.974
977.847
977.741
977.658
977.598
977.56
977.546
977.554
977.586
977.639
977.713
977.809
977.924
978.056
978.206
978.371
978.55
978.742
978.944
979.155
979.373
979.597
979.823
980.051
980.279
980.505
980.726
980.942
981.151
981.35
981.539
981.716
981.879
982.026
982.156
982.268
982.361
982.43
982.477
982.499
982.492
982.452
982.385
982.285
982.126
981.921
981.709
981.404
980.938
980.502
980.112
979.17
977.919
977.456
976.311
972.132
968.303
966.23
1020.72
1025.54
1020.84
1016.52
1016.76
1016.46
1015.07
1014.11
1013.9
1013.54
1013
1012.61
1012.35
1012.07
1011.76
1011.5
1011.26
1011.01
1010.77
1010.53
1010.3
1010.07
1009.83
1009.59
1009.35
1009.1
1008.85
1008.59
1008.32
1008.04
1007.76
1007.46
1007.16
1006.84
1006.51
1006.17
1005.82
1005.45
1005.07
1004.67
1004.25
1003.82
1003.38
1002.91
1002.43
1001.93
1001.41
1000.87
1000.32
999.743
999.151
998.541
997.914
997.27
996.609
995.933
995.242
994.537
993.82
993.091
992.352
991.606
990.852
990.094
989.332
988.57
987.808
987.049
986.295
985.548
984.809
984.081
983.365
982.663
981.976
981.306
980.654
980.022
979.41
978.818
978.249
977.702
977.177
976.675
976.195
975.739
975.305
974.893
974.503
974.135
973.788
973.461
973.155
972.868
972.6
972.351
972.118
971.903
971.705
971.522
971.354
971.202
971.064
970.94
970.829
970.73
970.644
970.57
970.508
970.458
970.417
970.388
970.369
970.359
970.359
970.369
970.388
970.416
970.452
970.496
970.549
970.61
970.679
970.755
970.838
970.929
971.027
971.131
971.243
971.36
971.485
971.615
971.752
971.895
972.044
972.198
972.358
972.524
972.696
972.872
973.054
973.242
973.434
973.632
973.835
974.043
974.255
974.472
974.695
974.921
975.153
975.389
975.629
975.873
976.121
976.374
976.63
976.889
977.151
977.417
977.684
977.955
978.227
978.5
978.775
979.05
979.325
979.6
979.875
980.148
980.42
980.689
980.956
981.219
981.478
981.733
981.984
982.228
982.467
982.7
982.926
983.144
983.355
983.558
983.753
983.938
984.115
984.282
984.441
984.589
984.727
984.855
984.973
985.08
985.177
985.264
985.339
985.404
985.457
985.499
985.53
985.549
985.556
985.552
985.536
985.506
985.465
985.41
985.342
985.26
985.166
985.057
984.935
984.798
984.648
984.484
984.307
984.117
983.914
983.698
983.471
983.232
982.984
982.726
982.46
982.188
981.909
981.626
981.34
981.053
980.766
980.481
980.2
979.924
979.656
979.396
979.148
978.912
978.69
978.484
978.295
978.125
977.974
977.844
977.736
977.65
977.587
977.547
977.53
977.536
977.565
977.616
977.689
977.782
977.895
978.027
978.175
978.339
978.517
978.708
978.91
979.12
979.338
979.561
979.787
980.015
980.243
980.468
980.69
980.906
981.115
981.314
981.503
981.68
981.843
981.99
982.12
982.232
982.324
982.394
982.438
982.46
982.456
982.412
982.336
982.243
982.098
981.86
981.63
981.411
980.926
980.299
980.087
979.535
977.643
976.867
977.798
973.476
967.806
971.862
1020.44
1019.17
1018.62
1019.8
1017.28
1015.16
1015.12
1015.03
1014.11
1013.39
1013.15
1012.88
1012.47
1012.12
1011.87
1011.61
1011.34
1011.08
1010.84
1010.6
1010.36
1010.12
1009.88
1009.64
1009.39
1009.14
1008.88
1008.62
1008.35
1008.07
1007.79
1007.49
1007.18
1006.86
1006.53
1006.19
1005.83
1005.46
1005.08
1004.68
1004.26
1003.83
1003.38
1002.91
1002.43
1001.92
1001.4
1000.86
1000.3
999.729
999.134
998.522
997.892
997.245
996.582
995.902
995.208
994.501
993.78
993.048
992.307
991.558
990.802
990.041
989.278
988.513
987.749
986.989
986.234
985.485
984.746
984.017
983.301
982.6
981.914
981.245
980.595
979.964
979.354
978.765
978.198
977.653
977.131
976.632
976.156
975.702
975.271
974.862
974.476
974.11
973.766
973.443
973.139
972.854
972.589
972.341
972.111
971.898
971.701
971.52
971.354
971.203
971.066
970.943
970.833
970.736
970.651
970.578
970.517
970.466
970.427
970.398
970.379
970.37
970.371
970.381
970.4
970.428
970.465
970.509
970.563
970.624
970.692
970.768
970.852
970.943
971.04
971.145
971.256
971.374
971.498
971.628
971.764
971.907
972.055
972.21
972.369
972.534
972.705
972.881
973.062
973.249
973.441
973.638
973.839
974.046
974.258
974.474
974.695
974.921
975.152
975.387
975.626
975.869
976.117
976.369
976.624
976.882
977.144
977.409
977.676
977.946
978.217
978.49
978.765
979.04
979.315
979.59
979.865
980.138
980.41
980.68
980.947
981.21
981.47
981.725
981.976
982.221
982.46
982.694
982.92
983.139
983.35
983.553
983.748
983.934
984.111
984.279
984.438
984.586
984.724
984.853
984.97
985.078
985.176
985.262
985.338
985.402
985.456
985.498
985.529
985.549
985.558
985.554
985.538
985.51
985.47
985.416
985.35
985.27
985.177
985.069
984.949
984.814
984.666
984.503
984.327
984.138
983.936
983.722
983.495
983.257
983.009
982.752
982.485
982.212
981.932
981.648
981.36
981.071
980.782
980.495
980.211
979.932
979.66
979.398
979.146
978.906
978.681
978.471
978.279
978.105
977.951
977.818
977.707
977.618
977.552
977.51
977.491
977.495
977.522
977.572
977.643
977.736
977.848
977.979
978.128
978.292
978.471
978.662
978.865
979.076
979.295
979.519
979.747
979.976
980.205
980.432
980.656
980.873
981.083
981.284
981.475
981.653
981.817
981.965
982.097
982.21
982.302
982.374
982.422
982.441
982.435
982.405
982.331
982.212
982.083
981.914
981.617
981.299
981.07
980.576
979.737
979.364
979.035
977.173
975.566
975.706
974.776
972.815
1020.44
1018.25
1018.17
1018.05
1016.56
1016.14
1015.57
1014.71
1014.09
1013.78
1013.4
1012.94
1012.58
1012.3
1012.01
1011.71
1011.44
1011.19
1010.94
1010.69
1010.45
1010.2
1009.96
1009.71
1009.46
1009.21
1008.95
1008.68
1008.41
1008.13
1007.84
1007.54
1007.23
1006.91
1006.58
1006.23
1005.87
1005.5
1005.11
1004.71
1004.29
1003.85
1003.4
1002.93
1002.44
1001.94
1001.41
1000.87
1000.31
999.729
999.13
998.514
997.88
997.228
996.559
995.875
995.176
994.463
993.737
993
992.254
991.499
990.737
989.971
989.203
988.434
987.666
986.901
986.142
985.391
984.649
983.918
983.2
982.497
981.81
981.142
980.492
979.863
979.254
978.667
978.102
977.56
977.041
976.546
976.073
975.623
975.196
974.791
974.408
974.047
973.707
973.387
973.087
972.806
972.544
972.299
972.072
971.862
971.667
971.489
971.325
971.176
971.041
970.92
970.811
970.715
970.632
970.56
970.5
970.45
970.412
970.384
970.366
970.358
970.359
970.37
970.389
970.418
970.455
970.5
970.554
970.616
970.685
970.761
970.845
970.937
971.035
971.14
971.251
971.369
971.494
971.624
971.76
971.903
972.051
972.206
972.365
972.53
972.7
972.876
973.057
973.243
973.435
973.631
973.832
974.039
974.25
974.466
974.686
974.912
975.141
975.376
975.615
975.857
976.105
976.356
976.611
976.869
977.13
977.395
977.662
977.932
978.204
978.477
978.752
979.027
979.303
979.579
979.853
980.127
980.4
980.67
980.938
981.202
981.462
981.719
981.97
982.216
982.456
982.69
982.917
983.137
983.349
983.552
983.748
983.935
984.112
984.281
984.439
984.588
984.726
984.855
984.973
985.081
985.179
985.265
985.341
985.406
985.46
985.503
985.535
985.556
985.565
985.562
985.547
985.52
985.481
985.429
985.364
985.286
985.194
985.088
984.969
984.836
984.689
984.528
984.353
984.164
983.963
983.749
983.522
983.284
983.035
982.776
982.509
982.233
981.951
981.664
981.374
981.081
980.788
980.497
980.209
979.925
979.65
979.382
979.126
978.881
978.651
978.437
978.241
978.063
977.905
977.769
977.654
977.562
977.494
977.449
977.429
977.431
977.458
977.507
977.578
977.671
977.784
977.916
978.066
978.232
978.412
978.606
978.81
979.024
979.246
979.472
979.703
979.935
980.167
980.396
980.623
980.843
981.056
981.259
981.452
981.633
981.8
981.951
982.085
982.201
982.296
982.369
982.421
982.446
982.439
982.41
982.356
982.244
982.091
981.951
981.735
981.354
981.052
980.847
980.128
979.255
979.275
978.572
976.39
976.17
976.279
974.397
1018.34
1018.36
1017.94
1016.45
1016.58
1016.42
1015.24
1014.61
1014.43
1014.01
1013.42
1013.05
1012.8
1012.47
1012.12
1011.84
1011.59
1011.32
1011.06
1010.81
1010.56
1010.31
1010.06
1009.81
1009.56
1009.3
1009.04
1008.77
1008.49
1008.21
1007.92
1007.62
1007.31
1006.98
1006.65
1006.3
1005.94
1005.56
1005.17
1004.77
1004.34
1003.9
1003.45
1002.98
1002.48
1001.97
1001.44
1000.9
1000.33
999.745
999.14
998.517
997.876
997.218
996.542
995.851
995.144
994.423
993.689
992.944
992.189
991.425
990.656
989.882
989.106
988.329
987.554
986.783
986.018
985.26
984.513
983.778
983.057
982.351
981.663
980.993
980.343
979.713
979.106
978.521
977.958
977.42
976.904
976.412
975.943
975.498
975.075
974.676
974.298
973.942
973.606
973.291
972.996
972.72
972.462
972.221
971.998
971.791
971.601
971.425
971.264
971.118
970.985
970.866
970.759
970.665
970.583
970.513
970.454
970.406
970.369
970.342
970.324
970.317
970.32
970.331
970.352
970.381
970.419
970.466
970.52
970.583
970.653
970.73
970.816
970.907
971.007
971.112
971.225
971.344
971.469
971.6
971.737
971.88
972.03
972.184
972.344
972.51
972.68
972.857
973.038
973.224
973.416
973.612
973.814
974.02
974.231
974.447
974.668
974.893
975.123
975.357
975.596
975.839
976.086
976.338
976.593
976.851
977.113
977.378
977.646
977.916
978.188
978.462
978.737
979.013
979.29
979.566
979.842
980.117
980.391
980.662
980.93
981.196
981.457
981.715
981.967
982.214
982.455
982.69
982.918
983.138
983.351
983.556
983.752
983.939
984.117
984.286
984.446
984.595
984.734
984.862
984.981
985.089
985.187
985.274
985.35
985.416
985.47
985.514
985.546
985.567
985.577
985.575
985.562
985.536
985.498
985.447
985.384
985.307
985.216
985.112
984.994
984.862
984.716
984.556
984.382
984.194
983.992
983.778
983.55
983.311
983.06
982.799
982.529
982.25
981.965
981.674
981.379
981.081
980.784
980.487
980.193
979.904
979.622
979.349
979.087
978.837
978.602
978.383
978.181
977.999
977.837
977.697
977.579
977.485
977.415
977.368
977.346
977.348
977.374
977.424
977.496
977.59
977.705
977.838
977.99
978.159
978.343
978.539
978.747
978.965
979.19
979.42
979.655
979.891
980.127
980.36
980.59
980.814
981.031
981.239
981.436
981.62
981.791
981.946
982.083
982.203
982.304
982.381
982.434
982.468
982.473
982.44
982.386
982.317
982.177
981.979
981.829
981.615
981.161
980.806
980.678
979.979
978.995
978.906
978.577
977.314
976.539
976.517
1017.29
1017.68
1017.2
1016.55
1016.35
1015.61
1015.23
1014.98
1014.41
1013.88
1013.59
1013.3
1012.91
1012.56
1012.29
1012.02
1011.73
1011.46
1011.21
1010.95
1010.7
1010.45
1010.19
1009.94
1009.68
1009.42
1009.16
1008.89
1008.61
1008.32
1008.03
1007.72
1007.41
1007.08
1006.75
1006.4
1006.03
1005.65
1005.26
1004.85
1004.42
1003.98
1003.52
1003.04
1002.55
1002.03
1001.49
1000.94
1000.37
999.775
999.163
998.532
997.883
997.215
996.53
995.828
995.111
994.38
993.635
992.879
992.113
991.338
990.557
989.772
988.985
988.198
987.413
986.632
985.859
985.093
984.339
983.598
982.872
982.161
981.47
980.798
980.146
979.516
978.91
978.326
977.766
977.23
976.718
976.231
975.767
975.327
974.91
974.516
974.144
973.793
973.464
973.155
972.865
972.594
972.341
972.106
971.888
971.686
971.499
971.327
971.17
971.027
970.897
970.78
970.676
970.584
970.504
970.435
970.378
970.331
970.295
970.269
970.253
970.247
970.251
970.263
970.285
970.315
970.355
970.402
970.458
970.522
970.593
970.672
970.758
970.852
970.953
971.06
971.174
971.294
971.421
971.554
971.693
971.837
971.988
972.144
972.305
972.472
972.645
972.822
973.005
973.192
973.384
973.582
973.784
973.992
974.204
974.42
974.642
974.868
975.099
975.334
975.573
975.817
976.065
976.317
976.573
976.832
977.094
977.36
977.629
977.9
978.173
978.448
978.724
979.001
979.279
979.556
979.834
980.11
980.384
980.656
980.926
981.193
981.455
981.714
981.968
982.216
982.458
982.694
982.923
983.144
983.358
983.563
983.761
983.949
984.128
984.297
984.457
984.606
984.746
984.875
984.994
985.103
985.201
985.288
985.364
985.43
985.485
985.529
985.562
985.584
985.594
985.594
985.581
985.556
985.519
985.469
985.407
985.331
985.242
985.139
985.022
984.891
984.745
984.586
984.412
984.223
984.021
983.805
983.576
983.334
983.081
982.817
982.543
982.26
981.97
981.674
981.374
981.07
980.766
980.463
980.163
979.867
979.579
979.299
979.031
978.775
978.534
978.309
978.102
977.916
977.75
977.606
977.485
977.388
977.316
977.268
977.245
977.247
977.274
977.324
977.398
977.494
977.611
977.748
977.904
978.076
978.263
978.464
978.677
978.899
979.129
979.364
979.603
979.844
980.085
980.324
980.559
980.788
981.01
981.222
981.424
981.613
981.789
981.949
982.092
982.216
982.322
982.408
982.468
982.503
982.521
982.507
982.451
982.383
982.3
982.128
981.914
981.781
981.532
981.039
980.786
980.647
979.868
979.245
979.21
978.578
977.938
977.875
1017.02
1016.71
1016.48
1016.6
1015.96
1015.37
1015.27
1014.84
1014.32
1014.03
1013.74
1013.34
1013
1012.73
1012.45
1012.15
1011.88
1011.62
1011.37
1011.1
1010.85
1010.6
1010.35
1010.09
1009.83
1009.57
1009.3
1009.03
1008.75
1008.46
1008.16
1007.86
1007.54
1007.21
1006.87
1006.52
1006.15
1005.77
1005.37
1004.96
1004.53
1004.08
1003.62
1003.13
1002.63
1002.11
1001.57
1001
1000.42
999.821
999.199
998.558
997.898
997.219
996.522
995.808
995.078
994.334
993.575
992.805
992.025
991.236
990.441
989.642
988.842
988.042
987.244
986.451
985.666
984.891
984.128
983.378
982.645
981.929
981.233
980.557
979.904
979.273
978.667
978.084
977.527
976.994
976.486
976.003
975.545
975.111
974.7
974.313
973.947
973.604
973.281
972.979
972.696
972.431
972.185
971.955
971.742
971.545
971.363
971.196
971.043
970.903
970.776
970.662
970.56
970.471
970.393
970.326
970.27
970.225
970.19
970.165
970.151
970.146
970.15
970.164
970.187
970.218
970.259
970.308
970.365
970.43
970.503
970.584
970.672
970.768
970.87
970.98
971.096
971.219
971.348
971.484
971.625
971.772
971.925
972.084
972.248
972.417
972.592
972.772
972.957
973.147
973.341
973.541
973.745
973.954
974.168
974.387
974.61
974.838
975.07
975.307
975.548
975.793
976.042
976.296
976.553
976.813
977.077
977.344
977.614
977.887
978.161
978.437
978.715
978.993
979.272
979.551
979.829
980.107
980.383
980.656
980.927
981.195
981.459
981.718
981.973
982.222
982.466
982.702
982.932
983.155
983.369
983.576
983.774
983.963
984.142
984.312
984.472
984.622
984.762
984.892
985.011
985.12
985.218
985.306
985.383
985.449
985.504
985.549
985.582
985.604
985.615
985.614
985.602
985.578
985.542
985.494
985.432
985.357
985.269
985.167
985.05
984.92
984.775
984.614
984.44
984.251
984.047
983.829
983.598
983.353
983.097
982.828
982.55
982.262
981.966
981.664
981.357
981.047
980.736
980.426
980.118
979.815
979.52
979.233
978.958
978.695
978.448
978.218
978.006
977.815
977.644
977.497
977.374
977.275
977.201
977.152
977.129
977.132
977.16
977.212
977.288
977.386
977.507
977.648
977.807
977.984
978.176
978.382
978.6
978.828
979.063
979.304
979.549
979.796
980.043
980.288
980.529
980.764
980.992
981.21
981.417
981.613
981.794
981.96
982.11
982.241
982.353
982.445
982.518
982.562
982.582
982.588
982.561
982.484
982.406
982.328
982.136
981.902
981.802
981.575
981.074
980.849
980.771
980.216
979.683
979.614
979.465
978.949
1016.56
1016.35
1016.22
1016.03
1015.63
1015.49
1015.08
1014.63
1014.41
1014.12
1013.71
1013.4
1013.16
1012.86
1012.55
1012.29
1012.04
1011.78
1011.51
1011.26
1011.01
1010.76
1010.51
1010.25
1009.99
1009.73
1009.46
1009.19
1008.91
1008.62
1008.32
1008.01
1007.69
1007.36
1007.02
1006.67
1006.29
1005.91
1005.51
1005.09
1004.66
1004.2
1003.73
1003.24
1002.73
1002.2
1001.65
1001.08
1000.49
999.881
999.248
998.596
997.923
997.231
996.52
995.791
995.046
994.285
993.511
992.724
991.927
991.121
990.309
989.494
988.676
987.86
987.047
986.24
985.442
984.654
983.879
983.12
982.378
981.655
980.953
980.273
979.617
978.985
978.379
977.797
977.242
976.713
976.21
975.732
975.28
974.852
974.449
974.069
973.711
973.376
973.061
972.766
972.491
972.233
971.994
971.77
971.564
971.373
971.196
971.033
970.884
970.748
970.625
970.514
970.415
970.328
970.252
970.186
970.132
970.088
970.054
970.03
970.017
970.013
970.018
970.033
970.057
970.09
970.132
970.182
970.24
970.307
970.382
970.465
970.556
970.654
970.759
970.872
970.991
971.117
971.25
971.388
971.533
971.684
971.841
972.003
972.171
972.344
972.523
972.706
972.895
973.088
973.286
973.489
973.697
973.91
974.127
974.348
974.574
974.805
975.04
975.279
975.523
975.77
976.022
976.277
976.536
976.799
977.065
977.334
977.605
977.879
978.155
978.433
978.712
978.992
979.272
979.552
979.832
980.11
980.387
980.662
980.934
981.203
981.468
981.728
981.984
982.234
982.478
982.716
982.946
983.169
983.385
983.592
983.79
983.98
984.16
984.33
984.491
984.641
984.781
984.912
985.031
985.14
985.238
985.326
985.403
985.469
985.525
985.57
985.603
985.625
985.637
985.636
985.625
985.601
985.566
985.517
985.456
985.382
985.294
985.193
985.077
984.946
984.8
984.639
984.464
984.273
984.068
983.847
983.613
983.365
983.104
982.831
982.548
982.254
981.952
981.643
981.329
981.012
980.693
980.375
980.06
979.75
979.446
979.152
978.87
978.601
978.347
978.111
977.895
977.698
977.525
977.374
977.248
977.147
977.072
977.024
977.001
977.005
977.034
977.088
977.167
977.269
977.394
977.539
977.703
977.885
978.083
978.295
978.519
978.753
978.995
979.243
979.494
979.748
980.001
980.253
980.5
980.742
980.977
981.202
981.416
981.618
981.807
981.98
982.136
982.277
982.398
982.497
982.579
982.641
982.672
982.681
982.682
982.646
982.557
982.485
982.412
982.212
982.009
981.943
981.71
981.327
981.199
981.058
980.696
980.518
980.425
980.203
1016.04
1016.06
1015.96
1015.61
1015.5
1015.31
1014.89
1014.65
1014.4
1014.05
1013.76
1013.52
1013.23
1012.93
1012.68
1012.43
1012.17
1011.91
1011.67
1011.42
1011.17
1010.92
1010.68
1010.42
1010.17
1009.9
1009.64
1009.36
1009.08
1008.79
1008.49
1008.19
1007.87
1007.53
1007.19
1006.83
1006.46
1006.07
1005.67
1005.24
1004.8
1004.35
1003.87
1003.37
1002.86
1002.32
1001.76
1001.18
1000.58
999.955
999.31
998.644
997.957
997.25
996.523
995.777
995.015
994.235
993.442
992.636
991.819
990.994
990.162
989.327
988.49
987.655
986.824
986.001
985.186
984.384
983.596
982.825
982.073
981.342
980.633
979.948
979.288
978.655
978.048
977.468
976.916
976.391
975.892
975.421
974.975
974.555
974.16
973.788
973.439
973.112
972.806
972.52
972.253
972.004
971.772
971.556
971.356
971.171
971
970.843
970.699
970.567
970.447
970.339
970.243
970.157
970.083
970.019
969.966
969.923
969.89
969.867
969.854
969.85
969.856
969.872
969.897
969.931
969.973
970.025
970.085
970.153
970.231
970.316
970.409
970.51
970.618
970.734
970.857
970.987
971.124
971.267
971.416
971.572
971.734
971.901
972.074
972.252
972.436
972.624
972.818
973.017
973.22
973.428
973.641
973.858
974.08
974.306
974.536
974.771
975.009
975.252
975.499
975.75
976.005
976.264
976.526
976.791
977.059
977.33
977.604
977.88
978.158
978.438
978.718
978.999
979.281
979.562
979.843
980.122
980.4
980.675
980.948
981.218
981.483
981.744
982
982.251
982.496
982.733
982.964
983.188
983.403
983.611
983.809
983.999
984.179
984.35
984.511
984.661
984.802
984.932
985.052
985.161
985.259
985.347
985.424
985.49
985.546
985.59
985.624
985.646
985.658
985.657
985.646
985.622
985.587
985.539
985.478
985.404
985.316
985.214
985.097
984.966
984.82
984.658
984.481
984.288
984.08
983.857
983.619
983.367
983.102
982.824
982.534
982.234
981.926
981.61
981.289
980.964
980.638
980.311
979.989
979.67
979.36
979.058
978.769
978.493
978.234
977.992
977.771
977.57
977.393
977.24
977.112
977.009
976.934
976.885
976.863
976.868
976.9
976.957
977.039
977.145
977.274
977.424
977.594
977.782
977.986
978.204
978.435
978.676
978.925
979.18
979.439
979.7
979.961
980.22
980.475
980.724
980.966
981.198
981.42
981.63
981.827
982.009
982.174
982.322
982.455
982.566
982.656
982.73
982.786
982.808
982.81
982.815
982.778
982.685
982.631
982.581
982.393
982.23
982.208
982.043
981.77
981.708
981.684
981.503
981.42
981.443
1015.74
1015.73
1015.63
1015.48
1015.33
1015.03
1014.84
1014.64
1014.31
1014.05
1013.83
1013.56
1013.27
1013.04
1012.8
1012.54
1012.29
1012.06
1011.82
1011.57
1011.33
1011.09
1010.84
1010.59
1010.34
1010.08
1009.82
1009.54
1009.26
1008.98
1008.68
1008.37
1008.05
1007.72
1007.37
1007.01
1006.64
1006.25
1005.84
1005.41
1004.97
1004.51
1004.02
1003.52
1003
1002.45
1001.88
1001.29
1000.68
1000.04
999.384
998.703
998
997.276
996.531
995.766
994.984
994.184
993.369
992.541
991.702
990.854
990
989.143
988.284
987.428
986.576
985.733
984.9
984.081
983.278
982.493
981.73
980.989
980.272
979.582
978.918
978.283
977.676
977.097
976.549
976.028
975.536
975.071
974.633
974.222
973.836
973.473
973.134
972.817
972.521
972.244
971.986
971.746
971.522
971.315
971.122
970.944
970.779
970.627
970.488
970.36
970.244
970.14
970.046
969.963
969.89
969.828
969.775
969.733
969.7
969.677
969.664
969.661
969.667
969.683
969.708
969.742
969.786
969.838
969.9
969.97
970.049
970.136
970.232
970.336
970.448
970.567
970.695
970.829
970.971
971.119
971.274
971.436
971.604
971.777
971.957
972.142
972.332
972.527
972.728
972.933
973.143
973.358
973.577
973.8
974.028
974.26
974.496
974.737
974.98
975.229
975.48
975.736
975.995
976.257
976.523
976.791
977.063
977.337
977.613
977.891
978.171
978.452
978.734
979.017
979.3
979.582
979.864
980.144
980.422
980.698
980.971
981.241
981.506
981.767
982.023
982.273
982.518
982.756
982.986
983.209
983.425
983.632
983.83
984.02
984.2
984.37
984.531
984.681
984.821
984.951
985.071
985.18
985.278
985.366
985.442
985.508
985.564
985.608
985.641
985.664
985.674
985.674
985.662
985.638
985.602
985.554
985.493
985.418
985.329
985.227
985.109
984.977
984.83
984.666
984.487
984.292
984.082
983.856
983.614
983.358
983.088
982.804
982.509
982.203
981.887
981.564
981.236
980.903
980.569
980.236
979.905
979.579
979.261
978.953
978.657
978.375
978.11
977.864
977.637
977.433
977.253
977.097
976.967
976.864
976.788
976.739
976.719
976.726
976.76
976.82
976.906
977.017
977.15
977.306
977.482
977.676
977.887
978.112
978.35
978.598
978.855
979.118
979.385
979.654
979.922
980.189
980.453
980.71
980.96
981.201
981.431
981.65
981.855
982.046
982.222
982.38
982.522
982.648
982.754
982.836
982.907
982.962
982.981
982.986
983.001
982.97
982.895
982.873
982.843
982.706
982.622
982.624
982.536
982.445
982.458
982.471
982.536
982.599
1015.53
1015.46
1015.37
1015.32
1015.13
1014.92
1014.77
1014.52
1014.28
1014.09
1013.83
1013.58
1013.36
1013.13
1012.88
1012.65
1012.42
1012.19
1011.95
1011.72
1011.49
1011.25
1011.01
1010.76
1010.52
1010.26
1010
1009.73
1009.45
1009.17
1008.87
1008.56
1008.24
1007.91
1007.57
1007.2
1006.83
1006.43
1006.02
1005.6
1005.15
1004.68
1004.19
1003.68
1003.15
1002.6
1002.02
1001.42
1000.79
1000.14
999.468
998.771
998.051
997.308
996.544
995.759
994.954
994.131
993.292
992.44
991.576
990.703
989.824
988.941
988.058
987.177
986.302
985.437
984.584
983.745
982.925
982.125
981.349
980.597
979.872
979.175
978.508
977.87
977.264
976.688
976.142
975.628
975.142
974.685
974.256
973.855
973.479
973.127
972.799
972.492
972.207
971.941
971.694
971.463
971.249
971.05
970.866
970.695
970.537
970.391
970.257
970.133
970.021
969.92
969.828
969.747
969.676
969.614
969.562
969.52
969.488
969.465
969.451
969.448
969.453
969.469
969.494
969.528
969.572
969.625
969.687
969.759
969.839
969.929
970.027
970.134
970.249
970.373
970.505
970.645
970.792
970.947
971.108
971.276
971.451
971.633
971.82
972.012
972.211
972.414
972.623
972.837
973.056
973.278
973.506
973.737
973.973
974.212
974.456
974.703
974.954
975.208
975.466
975.727
975.992
976.259
976.529
976.802
977.077
977.354
977.634
977.914
978.197
978.48
978.764
979.048
979.332
979.615
979.896
980.177
980.455
980.731
981.004
981.273
981.538
981.798
982.053
982.302
982.546
982.782
983.012
983.234
983.448
983.654
983.851
984.039
984.218
984.388
984.548
984.698
984.837
984.966
985.085
985.194
985.291
985.378
985.455
985.52
985.575
985.619
985.652
985.673
985.684
985.683
985.67
985.646
985.609
985.56
985.498
985.422
985.333
985.229
985.111
984.977
984.827
984.662
984.481
984.284
984.07
983.84
983.595
983.334
983.059
982.771
982.47
982.157
981.836
981.506
981.17
980.831
980.49
980.148
979.811
979.478
979.153
978.838
978.536
978.249
977.979
977.727
977.497
977.289
977.106
976.948
976.817
976.713
976.637
976.589
976.57
976.579
976.616
976.68
976.771
976.886
977.025
977.186
977.369
977.569
977.787
978.02
978.265
978.522
978.786
979.057
979.333
979.61
979.887
980.163
980.435
980.701
980.96
981.21
981.45
981.678
981.893
982.093
982.28
982.451
982.604
982.741
982.864
982.966
983.046
983.12
983.179
983.201
983.22
983.255
983.243
983.198
983.219
983.23
983.163
983.159
983.23
983.249
983.281
983.402
983.58
983.732
1015.3
1015.28
1015.22
1015.11
1014.97
1014.86
1014.66
1014.45
1014.29
1014.07
1013.83
1013.63
1013.42
1013.19
1012.97
1012.76
1012.54
1012.31
1012.09
1011.87
1011.64
1011.41
1011.17
1010.94
1010.69
1010.44
1010.18
1009.92
1009.64
1009.36
1009.07
1008.76
1008.44
1008.11
1007.77
1007.41
1007.03
1006.63
1006.22
1005.79
1005.34
1004.87
1004.37
1003.86
1003.32
1002.75
1002.17
1001.55
1000.91
1000.25
999.562
998.849
998.11
997.347
996.561
995.753
994.925
994.077
993.212
992.333
991.441
990.539
989.632
988.721
987.81
986.902
986.002
985.111
984.235
983.375
982.536
981.72
980.929
980.166
979.432
978.728
978.057
977.417
976.811
976.238
975.697
975.189
974.711
974.263
973.845
973.455
973.09
972.751
972.435
972.141
971.868
971.614
971.378
971.159
970.955
970.765
970.59
970.427
970.276
970.136
970.007
969.889
969.781
969.682
969.593
969.514
969.444
969.383
969.331
969.289
969.256
969.232
969.218
969.213
969.218
969.232
969.256
969.29
969.333
969.386
969.449
969.522
969.604
969.695
969.796
969.906
970.025
970.153
970.289
970.435
970.588
970.749
970.918
971.093
971.277
971.467
971.663
971.864
972.072
972.286
972.504
972.728
972.956
973.189
973.426
973.668
973.913
974.162
974.414
974.67
974.929
975.191
975.457
975.725
975.996
976.269
976.545
976.823
977.102
977.384
977.667
977.951
978.236
978.521
978.807
979.092
979.377
979.66
979.942
980.223
980.5
980.775
981.047
981.315
981.578
981.837
982.09
982.338
982.579
982.813
983.041
983.261
983.473