# vtk DataFile Version 2.0
LBE mesh
ASCII
DATASET STRUCTURED_POINTS
DIMENSIONS 300 100 1
ASPECT_RATIO 1 1 1
ORIGIN 0 0 0
POINT_DATA 30000
SCALARS rho double 1
LOOKUP_TABLE default
1047.62
1016
1015.26
1021.68
1019.83
1015.91
1015.69
1016.17
1015.37
1014.54
1014.35
1014.15
1013.75
1013.41
1013.18
1012.94
1012.66
1012.4
1012.17
1011.92
1011.67
1011.43
1011.18
1010.93
1010.67
1010.41
1010.14
1009.87
1009.58
1009.29
1009
1008.69
1008.37
1008.04
1007.7
1007.34
1006.98
1006.6
1006.2
1005.8
1005.37
1004.93
1004.48
1004.01
1003.52
1003.02
1002.5
1001.96
1001.4
1000.83
1000.24
999.628
999.002
998.359
997.699
997.024
996.334
995.629
994.911
994.181
993.44
992.69
991.932
991.168
990.399
989.628
988.856
988.085
987.317
986.554
985.799
985.053
984.318
983.595
982.887
982.195
981.521
980.867
980.233
979.621
979.031
978.465
977.924
977.407
976.916
976.45
976.01
975.597
975.209
974.847
974.51
974.199
973.912
973.65
973.412
973.197
973.005
972.836
972.688
972.561
972.455
972.369
972.302
972.253
972.223
972.209
972.213
972.233
972.268
972.318
972.383
972.461
972.552
972.657
972.773
972.901
973.04
973.189
973.348
973.516
973.694
973.879
974.072
974.273
974.48
974.693
974.912
975.135
975.363
975.594
975.828
976.065
976.304
976.544
976.785
977.026
977.267
977.506
977.744
977.98
978.213
978.442
978.668
978.889
979.106
979.316
979.522
979.72
979.912
980.097
980.275
980.445
980.607
980.76
980.906
981.042
981.17
981.289
981.398
981.499
981.59
981.672
981.744
981.807
981.861
981.906
981.94
981.965
981.98
981.985
981.98
981.964
981.936
981.898
981.847
981.785
981.709
981.622
981.521
981.408
981.283
981.145
980.995
980.835
980.664
980.485
980.298
980.105
979.909
979.711
979.513
979.319
979.129
978.948
978.777
978.62
978.479
978.356
978.255
978.176
978.123
978.096
978.098
978.129
978.19
978.281
978.403
978.555
978.736
978.945
979.181
979.443
979.727
980.033
980.358
980.7
981.056
981.425
981.802
982.187
982.577
982.969
983.362
983.753
984.141
984.524
984.901
985.27
985.631
985.982
986.322
986.652
986.97
987.278
987.573
987.857
988.13
988.393
988.645
988.887
989.12
989.344
989.561
989.77
989.973
990.171
990.364
990.553
990.739
990.922
991.102
991.28
991.457
991.632
991.806
991.979
992.15
992.32
992.488
992.653
992.816
992.976
993.132
993.283
993.43
993.57
993.703
993.828
993.945
994.053
994.15
994.237
994.311
994.373
994.421
994.454
994.473
994.474
994.458
994.425
994.373
994.296
994.196
994.081
993.934
993.737
993.529
993.313
992.976
992.547
992.267
991.854
990.817
990.096
990.26
988.233
984.167
986.219
987.07
962.221
1030.55
1027
1022.9
1017.69
1017.85
1017.98
1016.78
1015.6
1015.33
1015.05
1014.55
1014.12
1013.86
1013.57
1013.26
1012.98
1012.73
1012.47
1012.21
1011.96
1011.71
1011.46
1011.2
1010.95
1010.68
1010.42
1010.15
1009.87
1009.59
1009.29
1008.99
1008.68
1008.36
1008.02
1007.68
1007.32
1006.96
1006.57
1006.18
1005.77
1005.34
1004.9
1004.45
1003.98
1003.49
1002.98
1002.46
1001.92
1001.36
1000.79
1000.19
999.583
998.956
998.313
997.653
996.978
996.287
995.583
994.866
994.137
993.397
992.649
991.892
991.13
990.363
989.594
988.825
988.057
987.292
986.532
985.78
985.037
984.305
983.585
982.881
982.192
981.522
980.871
980.241
979.631
979.045
978.482
977.944
977.43
976.941
976.478
976.041
975.629
975.243
974.883
974.548
974.238
973.953
973.692
973.455
973.241
973.05
972.881
972.734
972.607
972.501
972.415
972.348
972.3
972.269
972.256
972.259
972.279
972.313
972.363
972.427
972.504
972.595
972.699
972.814
972.941
973.079
973.228
973.386
973.554
973.73
973.915
974.107
974.307
974.513
974.725
974.942
975.165
975.392
975.622
975.856
976.092
976.33
976.57
976.81
977.05
977.29
977.529
977.767
978.002
978.235
978.464
978.689
978.91
979.126
979.337
979.542
979.74
979.932
980.117
980.294
980.464
980.626
980.779
980.924
981.06
981.188
981.307
981.416
981.516
981.607
981.688
981.761
981.823
981.877
981.921
981.955
981.98
981.994
981.999
981.993
981.977
981.95
981.911
981.861
981.799
981.725
981.638
981.539
981.427
981.303
981.167
981.02
980.861
980.693
980.515
980.331
980.14
979.945
979.748
979.552
979.358
979.169
978.988
978.817
978.659
978.517
978.393
978.289
978.208
978.153
978.123
978.122
978.149
978.207
978.294
978.412
978.56
978.737
978.942
979.175
979.433
979.714
980.016
980.339
980.677
981.031
981.397
981.772
982.156
982.544
982.935
983.327
983.717
984.105
984.488
984.865
985.234
985.595
985.946
986.288
986.618
986.938
987.246
987.543
987.829
988.103
988.366
988.62
988.863
989.097
989.323
989.541
989.751
989.955
990.154
990.347
990.537
990.723
990.906
991.086
991.264
991.441
991.616
991.79
991.962
992.133
992.303
992.47
992.635
992.797
992.957
993.112
993.263
993.408
993.548
993.68
993.805
993.922
994.028
994.125
994.211
994.285
994.346
994.393
994.425
994.442
994.442
994.425
994.388
994.331
994.255
994.153
994.022
993.87
993.691
993.457
993.181
992.905
992.54
992.01
991.516
991.079
990.064
988.721
988.212
986.971
982.547
978.528
976.383
1022.47
1027.25
1022.57
1018.26
1018.48
1018.17
1016.77
1015.79
1015.57
1015.2
1014.65
1014.24
1013.96
1013.66
1013.33
1013.05
1012.79
1012.52
1012.26
1012
1011.75
1011.49
1011.23
1010.97
1010.71
1010.44
1010.17
1009.89
1009.6
1009.3
1009
1008.68
1008.36
1008.03
1007.68
1007.32
1006.95
1006.57
1006.17
1005.76
1005.33
1004.89
1004.43
1003.96
1003.47
1002.96
1002.44
1001.89
1001.33
1000.76
1000.16
999.553
998.925
998.28
997.619
996.942
996.251
995.545
994.827
994.097
993.357
992.608
991.852
991.089
990.323
989.554
988.785
988.017
987.253
986.494
985.743
985.002
984.271
983.554
982.851
982.165
981.497
980.848
980.22
979.613
979.03
978.469
977.933
977.422
976.936
976.476
976.041
975.632
975.249
974.891
974.558
974.25
973.967
973.708
973.472
973.26
973.07
972.903
972.757
972.632
972.526
972.441
972.375
972.327
972.297
972.284
972.288
972.308
972.343
972.392
972.456
972.534
972.625
972.728
972.844
972.971
973.109
973.257
973.415
973.582
973.758
973.942
974.135
974.334
974.54
974.751
974.969
975.191
975.417
975.648
975.881
976.117
976.355
976.594
976.835
977.075
977.315
977.554
977.791
978.027
978.259
978.489
978.714
978.935
979.151
979.362
979.567
979.766
979.958
980.143
980.32
980.49
980.652
980.805
980.95
981.086
981.214
981.332
981.441
981.541
981.632
981.713
981.785
981.847
981.9
981.944
981.978
982.002
982.017
982.021
982.015
981.999
981.972
981.934
981.885
981.823
981.75
981.665
981.567
981.456
981.333
981.199
981.052
980.895
980.727
980.55
980.366
980.175
979.98
979.783
979.585
979.389
979.198
979.015
978.841
978.68
978.534
978.406
978.298
978.213
978.153
978.119
978.114
978.137
978.191
978.275
978.389
978.533
978.707
978.91
979.14
979.396
979.675
979.977
980.298
980.636
980.989
981.355
981.731
982.114
982.503
982.895
983.287
983.679
984.068
984.452
984.83
985.2
985.563
985.916
986.258
986.59
986.911
987.221
987.519
987.806
988.081
988.346
988.6
988.844
989.079
989.305
989.523
989.734
989.938
990.137
990.33
990.52
990.706
990.888
991.068
991.246
991.423
991.598
991.771
991.943
992.113
992.283
992.45
992.615
992.777
992.937
993.092
993.243
993.388
993.528
993.661
993.786
993.903
994.01
994.107
994.193
994.267
994.327
994.375
994.407
994.423
994.422
994.405
994.368
994.308
994.23
994.131
993.998
993.834
993.662
993.442
993.133
992.834
992.559
992.016
991.318
991.061
990.471
988.461
987.602
988.571
984.03
978.077
982.347
1022.19
1020.91
1020.36
1021.51
1018.99
1016.87
1016.81
1016.7
1015.77
1015.05
1014.79
1014.5
1014.07
1013.71
1013.44
1013.16
1012.86
1012.59
1012.33
1012.07
1011.8
1011.54
1011.28
1011.02
1010.75
1010.48
1010.2
1009.92
1009.63
1009.33
1009.03
1008.71
1008.38
1008.05
1007.7
1007.34
1006.97
1006.58
1006.18
1005.77
1005.34
1004.9
1004.44
1003.96
1003.47
1002.96
1002.43
1001.89
1001.33
1000.75
1000.15
999.536
998.905
998.257
997.593
996.914
996.219
995.511
994.79
994.057
993.315
992.563
991.803
991.038
990.269
989.498
988.727
987.957
987.192
986.432
985.68
984.937
984.207
983.49
982.787
982.102
981.435
980.788
980.161
979.557
978.975
978.418
977.884
977.376
976.893
976.435
976.004
975.598
975.217
974.863
974.533
974.228
973.948
973.692
973.459
973.249
973.062
972.897
972.753
972.63
972.527
972.444
972.379
972.333
972.304
972.293
972.298
972.319
972.355
972.406
972.471
972.549
972.641
972.745
972.861
972.988
973.127
973.276
973.434
973.602
973.778
973.963
974.156
974.355
974.561
974.773
974.991
975.213
975.44
975.671
975.904
976.141
976.379
976.619
976.859
977.1
977.34
977.58
977.818
978.053
978.286
978.516
978.742
978.964
979.181
979.392
979.597
979.797
979.989
980.174
980.352
980.522
980.684
980.838
980.983
981.119
981.247
981.365
981.474
981.573
981.664
981.745
981.817
981.879
981.932
981.975
982.009
982.033
982.047
982.051
982.046
982.03
982.003
981.966
981.917
981.857
981.784
981.7
981.603
981.493
981.371
981.237
981.09
980.933
980.764
980.587
980.401
980.208
980.01
979.809
979.608
979.408
979.212
979.024
978.845
978.678
978.526
978.392
978.279
978.188
978.123
978.083
978.073
978.092
978.141
978.222
978.333
978.475
978.647
978.849
979.078
979.333
979.613
979.915
980.237
980.577
980.932
981.299
981.677
982.063
982.454
982.849
983.244
983.638
984.029
984.416
984.796
985.169
985.533
985.888
986.233
986.567
986.889
987.2
987.499
987.787
988.063
988.329
988.583
988.827
989.062
989.288
989.506
989.717
989.921
990.119
990.312
990.501
990.686
990.868
991.047
991.225
991.401
991.576
991.749
991.92
992.091
992.26
992.428
992.593
992.756
992.916
993.072
993.224
993.37
993.511
993.645
993.771
993.888
993.997
994.095
994.182
994.257
994.319
994.367
994.4
994.417
994.418
994.4
994.365
994.309
994.228
994.126
994.006
993.848
993.647
993.443
993.207
992.844
992.463
992.184
991.637
990.732
990.318
989.948
987.973
986.3
986.421
985.436
983.429
1022.18
1019.99
1019.9
1019.77
1018.27
1017.84
1017.25
1016.38
1015.75
1015.43
1015.03
1014.55
1014.17
1013.88
1013.57
1013.25
1012.97
1012.69
1012.42
1012.15
1011.89
1011.62
1011.36
1011.09
1010.82
1010.54
1010.26
1009.98
1009.69
1009.39
1009.08
1008.76
1008.43
1008.09
1007.74
1007.38
1007.01
1006.62
1006.22
1005.8
1005.37
1004.92
1004.46
1003.98
1003.49
1002.97
1002.44
1001.9
1001.33
1000.75
1000.15
999.531
998.895
998.243
997.574
996.89
996.19
995.477
994.751
994.012
993.264
992.507
991.742
990.971
990.197
989.421
988.645
987.871
987.102
986.338
985.583
984.838
984.105
983.386
982.683
981.997
981.33
980.683
980.058
979.455
978.876
978.32
977.79
977.284
976.805
976.351
975.923
975.521
975.145
974.794
974.468
974.168
973.891
973.639
973.411
973.205
973.021
972.86
972.72
972.6
972.5
972.42
972.358
972.315
972.289
972.28
972.287
972.31
972.349
972.401
972.468
972.548
972.642
972.748
972.865
972.994
973.134
973.284
973.444
973.613
973.791
973.977
974.17
974.371
974.578
974.791
975.009
975.232
975.46
975.691
975.926
976.163
976.402
976.643
976.884
977.125
977.367
977.607
977.846
978.082
978.316
978.546
978.773
978.995
979.213
979.425
979.631
979.831
980.024
980.21
980.388
980.559
980.721
980.875
981.02
981.157
981.284
981.403
981.512
981.612
981.702
981.783
981.854
981.916
981.969
982.012
982.046
982.07
982.084
982.088
982.083
982.067
982.041
982.004
981.956
981.896
981.824
981.74
981.643
981.534
981.412
981.277
981.13
980.971
980.8
980.62
980.431
980.234
980.032
979.826
979.618
979.412
979.21
979.014
978.827
978.653
978.494
978.353
978.232
978.134
978.062
978.017
978.001
978.016
978.061
978.139
978.248
978.388
978.56
978.761
978.991
979.248
979.53
979.834
980.159
980.502
980.86
981.231
981.613
982.003
982.398
982.796
983.195
983.593
983.987
984.378
984.761
985.137
985.504
985.862
986.209
986.544
986.869
987.181
987.481
987.77
988.047
988.312
988.567
988.811
989.046
989.271
989.488
989.698
989.901
990.099
990.291
990.479
990.663
990.844
991.023
991.2
991.376
991.55
991.723
991.895
992.066
992.236
992.404
992.57
992.734
992.895
993.053
993.206
993.354
993.496
993.632
993.76
993.88
993.99
994.09
994.179
994.257
994.321
994.371
994.406
994.426
994.429
994.414
994.38
994.33
994.256
994.154
994.034
993.897
993.707
993.479
993.274
993
992.558
992.204
991.965
991.19
990.251
990.264
989.51
987.202
986.953
987.061
985.124
1020.09
1020.1
1019.66
1018.17
1018.28
1018.11
1016.92
1016.27
1016.09
1015.64
1015.04
1014.66
1014.39
1014.04
1013.68
1013.38
1013.11
1012.82
1012.54
1012.26
1012
1011.73
1011.46
1011.19
1010.91
1010.64
1010.35
1010.06
1009.77
1009.47
1009.16
1008.83
1008.5
1008.16
1007.81
1007.45
1007.07
1006.68
1006.28
1005.86
1005.42
1004.98
1004.51
1004.03
1003.53
1003.01
1002.48
1001.93
1001.36
1000.77
1000.16
999.538
998.896
998.237
997.562
996.87
996.163
995.441
994.707
993.96
993.204
992.438
991.665
990.886
990.104
989.32
988.537
987.756
986.979
986.209
985.449
984.699
983.962
983.24
982.534
981.846
981.178
980.531
979.906
979.304
978.726
978.174
977.646
977.144
976.668
976.219
975.795
975.398
975.027
974.682
974.362
974.066
973.795
973.548
973.325
973.124
972.946
972.789
972.654
972.539
972.443
972.367
972.31
972.271
972.248
972.243
972.254
972.281
972.322
972.378
972.449
972.532
972.628
972.736
972.857
972.988
973.13
973.283
973.445
973.616
973.796
973.983
974.179
974.381
974.59
974.804
975.024
975.249
975.478
975.711
975.946
976.185
976.425
976.667
976.909
977.152
977.394
977.635
977.875
978.112
978.346
978.578
978.805
979.029
979.247
979.46
979.666
979.867
980.061
980.247
980.427
980.597
980.761
980.915
981.061
981.197
981.326
981.444
981.554
981.653
981.744
981.825
981.896
981.958
982.01
982.053
982.087
982.111
982.125
982.13
982.125
982.109
982.083
982.047
981.998
981.939
981.867
981.783
981.686
981.576
981.453
981.317
981.167
981.005
980.832
980.647
980.453
980.251
980.042
979.829
979.614
979.399
979.188
978.984
978.788
978.604
978.436
978.286
978.157
978.052
977.973
977.922
977.901
977.911
977.954
978.029
978.137
978.277
978.449
978.652
978.883
979.143
979.428
979.737
980.066
980.413
980.776
981.152
981.539
981.933
982.334
982.737
983.14
983.543
983.942
984.336
984.723
985.103
985.473
985.834
986.183
986.521
986.847
987.161
987.462
987.751
988.029
988.294
988.549
988.793
989.027
989.251
989.468
989.676
989.879
990.075
990.266
990.453
990.636
990.816
990.995
991.171
991.346
991.521
991.694
991.867
992.039
992.209
992.379
992.546
992.712
992.875
993.034
993.19
993.34
993.485
993.624
993.754
993.877
993.99
994.093
994.186
994.266
994.334
994.388
994.427
994.45
994.458
994.449
994.42
994.371
994.307
994.22
994.099
993.963
993.819
993.611
993.349
993.144
992.883
992.378
991.983
991.831
991.078
990.04
989.935
989.559
988.21
987.364
987.313
1019.04
1019.42
1018.92
1018.26
1018.05
1017.29
1016.91
1016.64
1016.06
1015.51
1015.2
1014.9
1014.49
1014.12
1013.84
1013.55
1013.24
1012.95
1012.68
1012.4
1012.13
1011.85
1011.58
1011.31
1011.03
1010.75
1010.47
1010.18
1009.88
1009.57
1009.26
1008.94
1008.61
1008.26
1007.91
1007.54
1007.16
1006.77
1006.36
1005.94
1005.5
1005.05
1004.58
1004.1
1003.59
1003.07
1002.53
1001.97
1001.4
1000.8
1000.19
999.558
998.908
998.24
997.555
996.853
996.136
995.404
994.659
993.901
993.133
992.356
991.572
990.782
989.988
989.194
988.4
987.609
986.824
986.045
985.277
984.52
983.777
983.049
982.339
981.649
980.978
980.33
979.705
979.104
978.527
977.977
977.452
976.955
976.483
976.038
975.62
975.229
974.864
974.524
974.211
973.922
973.657
973.417
973.2
973.006
972.834
972.684
972.555
972.445
972.356
972.286
972.233
972.199
972.183
972.182
972.198
972.23
972.276
972.336
972.411
972.498
972.599
972.711
972.835
972.97
973.116
973.271
973.437
973.611
973.793
973.984
974.182
974.387
974.598
974.815
975.037
975.264
975.495
975.729
975.966
976.206
976.448
976.691
976.934
977.178
977.421
977.663
977.904
978.142
978.378
978.609
978.838
979.062
979.28
979.494
979.701
979.902
980.097
980.284
980.464
980.635
980.799
980.954
981.1
981.237
981.366
981.485
981.594
981.695
981.785
981.866
981.938
982
982.052
982.096
982.129
982.153
982.168
982.172
982.167
982.151
982.126
982.089
982.04
981.98
981.908
981.824
981.726
981.614
981.489
981.35
981.198
981.032
980.854
980.664
980.464
980.254
980.038
979.816
979.592
979.368
979.148
978.932
978.727
978.533
978.356
978.196
978.059
977.946
977.86
977.803
977.777
977.784
977.823
977.897
978.004
978.145
978.319
978.524
978.759
979.022
979.312
979.625
979.959
980.312
980.681
981.063
981.456
981.856
982.262
982.671
983.08
983.487
983.892
984.29
984.682
985.065
985.439
985.802
986.154
986.494
986.822
987.137
987.44
987.729
988.007
988.272
988.526
988.77
989.003
989.227
989.442
989.65
989.85
990.045
990.235
990.421
990.603
990.783
990.961
991.138
991.313
991.488
991.662
991.835
992.008
992.181
992.352
992.522
992.69
992.855
993.018
993.176
993.33
993.478
993.62
993.754
993.881
993.998
994.105
994.202
994.287
994.359
994.418
994.462
994.492
994.505
994.502
994.483
994.443
994.383
994.311
994.214
994.079
993.939
993.795
993.565
993.298
993.127
992.841
992.303
992.028
991.871
991.033
990.361
990.297
989.59
988.851
988.697
1018.77
1018.45
1018.2
1018.3
1017.65
1017.05
1016.94
1016.49
1015.96
1015.65
1015.34
1014.93
1014.57
1014.29
1013.99
1013.67
1013.38
1013.1
1012.83
1012.55
1012.27
1012
1011.73
1011.45
1011.17
1010.89
1010.61
1010.31
1010.01
1009.71
1009.39
1009.07
1008.73
1008.39
1008.03
1007.66
1007.28
1006.89
1006.48
1006.05
1005.61
1005.15
1004.68
1004.19
1003.68
1003.15
1002.61
1002.04
1001.46
1000.85
1000.23
999.59
998.93
998.251
997.555
996.841
996.111
995.366
994.607
993.836
993.053
992.262
991.463
990.659
989.852
989.043
988.236
987.433
986.635
985.846
985.067
984.301
983.55
982.816
982.101
981.405
980.732
980.081
979.456
978.855
978.28
977.732
977.211
976.717
976.25
975.811
975.399
975.014
974.656
974.324
974.018
973.737
973.48
973.247
973.038
972.852
972.687
972.545
972.423
972.321
972.238
972.174
972.129
972.102
972.091
972.097
972.119
972.157
972.208
972.274
972.355
972.448
972.553
972.671
972.799
972.939
973.09
973.25
973.42
973.598
973.784
973.979
974.18
974.389
974.603
974.823
975.048
975.277
975.51
975.747
975.987
976.228
976.471
976.715
976.96
977.205
977.449
977.692
977.933
978.172
978.408
978.64
978.869
979.093
979.312
979.525
979.733
979.934
980.129
980.316
980.496
980.668
980.832
980.987
981.134
981.271
981.4
981.52
981.63
981.73
981.822
981.903
981.975
982.037
982.09
982.134
982.167
982.191
982.206
982.211
982.205
982.19
982.164
982.126
982.077
982.017
981.944
981.858
981.758
981.644
981.517
981.374
981.218
981.048
980.864
980.668
980.46
980.243
980.018
979.787
979.553
979.319
979.087
978.862
978.645
978.442
978.254
978.086
977.94
977.819
977.727
977.665
977.635
977.638
977.675
977.748
977.856
977.998
978.174
978.382
978.621
978.889
979.183
979.502
979.843
980.202
980.577
980.966
981.365
981.772
982.184
982.599
983.014
983.427
983.836
984.239
984.635
985.022
985.399
985.765
986.12
986.462
986.791
987.108
987.411
987.702
987.979
988.244
988.498
988.74
988.972
989.195
989.409
989.615
989.815
990.009
990.197
990.382
990.564
990.744
990.922
991.098
991.274
991.45
991.625
991.8
991.975
992.15
992.324
992.496
992.667
992.836
993.002
993.164
993.322
993.474
993.62
993.76
993.89
994.013
994.125
994.227
994.318
994.397
994.462
994.513
994.55
994.572
994.577
994.567
994.542
994.495
994.427
994.354
994.255
994.111
993.974
993.848
993.612
993.339
993.216
992.961
992.425
992.183
992.081
991.47
990.872
990.73
990.473
989.791
1018.3
1018.08
1017.94
1017.73
1017.32
1017.16
1016.73
1016.27
1016.04
1015.73
1015.31
1014.98
1014.72
1014.41
1014.08
1013.8
1013.53
1013.25
1012.97
1012.69
1012.43
1012.16
1011.88
1011.61
1011.33
1011.05
1010.76
1010.47
1010.17
1009.86
1009.54
1009.22
1008.88
1008.54
1008.18
1007.81
1007.42
1007.03
1006.61
1006.18
1005.74
1005.28
1004.8
1004.3
1003.79
1003.25
1002.7
1002.13
1001.53
1000.92
1000.29
999.635
998.963
998.271
997.561
996.833
996.087
995.327
994.552
993.764
992.965
992.156
991.34
990.518
989.694
988.869
988.046
987.228
986.416
985.613
984.822
984.045
983.284
982.541
981.819
981.118
980.441
979.788
979.16
978.56
977.986
977.44
976.923
976.433
975.972
975.539
975.135
974.757
974.406
974.083
973.785
973.513
973.265
973.041
972.841
972.663
972.507
972.373
972.259
972.165
972.091
972.036
971.998
971.978
971.975
971.989
972.018
972.062
972.121
972.194
972.281
972.38
972.493
972.616
972.751
972.897
973.053
973.219
973.394
973.578
973.769
973.968
974.174
974.387
974.605
974.829
975.057
975.29
975.526
975.765
976.007
976.25
976.495
976.741
976.987
977.232
977.477
977.72
977.962
978.201
978.437
978.669
978.897
979.12
979.339
979.552
979.759
979.96
980.154
980.341
980.521
980.692
980.856
981.011
981.158
981.296
981.424
981.544
981.655
981.756
981.847
981.929
982.002
982.064
982.118
982.162
982.196
982.22
982.235
982.24
982.234
982.218
982.192
982.154
982.104
982.042
981.968
981.88
981.778
981.661
981.531
981.385
981.224
981.048
980.858
980.655
980.44
980.214
979.98
979.74
979.495
979.251
979.009
978.773
978.546
978.332
978.135
977.958
977.804
977.677
977.579
977.512
977.478
977.479
977.515
977.588
977.696
977.84
978.019
978.231
978.474
978.747
979.048
979.373
979.719
980.086
980.468
980.863
981.269
981.683
982.101
982.522
982.943
983.361
983.775
984.183
984.583
984.974
985.354
985.723
986.08
986.424
986.755
987.072
987.376
987.666
987.944
988.209
988.461
988.703
988.933
989.155
989.367
989.573
989.771
989.964
990.152
990.336
990.517
990.697
990.875
991.053
991.23
991.407
991.584
991.761
991.939
992.116
992.293
992.469
992.644
992.817
992.987
993.154
993.317
993.474
993.626
993.77
993.907
994.036
994.154
994.263
994.36
994.446
994.52
994.58
994.625
994.658
994.675
994.675
994.663
994.636
994.586
994.519
994.453
994.358
994.217
994.103
993.996
993.764
993.539
993.462
993.206
992.794
992.645
992.463
992.024
991.754
991.528
991.094
1017.77
1017.79
1017.67
1017.31
1017.18
1016.98
1016.54
1016.28
1016.02
1015.65
1015.35
1015.09
1014.78
1014.47
1014.2
1013.93
1013.65
1013.37
1013.11
1012.85
1012.58
1012.31
1012.04
1011.77
1011.49
1011.21
1010.93
1010.63
1010.34
1010.03
1009.71
1009.39
1009.05
1008.7
1008.34
1007.97
1007.58
1007.18
1006.77
1006.34
1005.89
1005.42
1004.94
1004.44
1003.92
1003.37
1002.81
1002.23
1001.63
1001
1000.36
999.693
999.006
998.3
997.574
996.829
996.066
995.288
994.494
993.686
992.867
992.039
991.202
990.361
989.517
988.673
987.831
986.995
986.166
985.347
984.542
983.751
982.979
982.227
981.496
980.789
980.106
979.45
978.821
978.221
977.648
977.105
976.592
976.108
975.653
975.227
974.829
974.46
974.118
973.804
973.515
973.253
973.014
972.8
972.61
972.442
972.296
972.171
972.067
971.982
971.917
971.871
971.842
971.83
971.836
971.857
971.895
971.948
972.015
972.096
972.19
972.297
972.417
972.548
972.69
972.843
973.006
973.179
973.36
973.55
973.748
973.953
974.164
974.382
974.605
974.833
975.065
975.302
975.541
975.783
976.027
976.273
976.52
976.767
977.014
977.26
977.505
977.749
977.99
978.229
978.464
978.695
978.922
979.144
979.362
979.573
979.779
979.978
980.171
980.356
980.535
980.705
980.868
981.022
981.168
981.305
981.434
981.553
981.663
981.765
981.857
981.939
982.012
982.075
982.129
982.174
982.208
982.233
982.248
982.253
982.248
982.232
982.204
982.166
982.115
982.052
981.976
981.885
981.781
981.661
981.527
981.376
981.211
981.03
980.833
980.623
980.401
980.167
979.924
979.674
979.421
979.166
978.914
978.668
978.432
978.209
978.003
977.818
977.658
977.524
977.421
977.35
977.313
977.312
977.348
977.421
977.531
977.677
977.859
978.075
978.323
978.602
978.908
979.239
979.593
979.965
980.355
980.757
981.17
981.59
982.015
982.441
982.867
983.291
983.71
984.122
984.526
984.92
985.303
985.674
986.033
986.378
986.71
987.028
987.332
987.622
987.899
988.163
988.415
988.655
988.885
989.105
989.316
989.52
989.717
989.909
990.096
990.28
990.462
990.642
990.821
991
991.178
991.357
991.537
991.717
991.898
992.079
992.261
992.441
992.62
992.798
992.974
993.146
993.315
993.478
993.636
993.787
993.931
994.066
994.192
994.309
994.415
994.509
994.592
994.662
994.719
994.762
994.793
994.81
994.809
994.799
994.779
994.732
994.673
994.626
994.546
994.416
994.337
994.269
994.063
993.89
993.863
993.68
993.374
993.273
993.179
992.891
992.655
992.426
1017.47
1017.45
1017.33
1017.17
1017
1016.68
1016.48
1016.27
1015.92
1015.64
1015.41
1015.12
1014.82
1014.56
1014.31
1014.03
1013.76
1013.51
1013.25
1012.99
1012.73
1012.47
1012.2
1011.93
1011.66
1011.38
1011.1
1010.81
1010.51
1010.21
1009.89
1009.57
1009.23
1008.88
1008.52
1008.15
1007.76
1007.36
1006.94
1006.51
1006.06
1005.59
1005.1
1004.59
1004.06
1003.51
1002.94
1002.35
1001.73
1001.1
1000.44
999.761
999.06
998.337
997.593
996.83
996.048
995.249
994.433
993.604
992.763
991.911
991.052
990.188
989.321
988.455
987.592
986.735
985.886
985.05
984.228
983.423
982.637
981.873
981.133
980.418
979.73
979.07
978.44
977.839
977.268
976.729
976.219
975.741
975.293
974.875
974.486
974.126
973.794
973.49
973.212
972.96
972.732
972.529
972.35
972.192
972.057
971.942
971.848
971.774
971.719
971.682
971.663
971.661
971.676
971.706
971.753
971.815
971.89
971.98
972.083
972.199
972.327
972.467
972.617
972.778
972.95
973.13
973.319
973.516
973.721
973.932
974.15
974.374
974.603
974.836
975.073
975.314
975.557
975.803
976.05
976.298
976.547
976.796
977.044
977.29
977.535
977.779
978.019
978.256
978.49
978.719
978.944
979.164
979.379
979.588
979.791
979.988
980.178
980.361
980.536
980.705
980.865
981.017
981.161
981.297
981.424
981.542
981.652
981.753
981.844
981.927
982
982.064
982.118
982.163
982.199
982.224
982.24
982.245
982.239
982.223
982.196
982.156
982.105
982.04
981.962
981.869
981.762
981.639
981.501
981.347
981.177
980.99
980.788
980.571
980.341
980.1
979.849
979.591
979.329
979.066
978.805
978.55
978.306
978.075
977.862
977.67
977.504
977.366
977.258
977.184
977.146
977.144
977.179
977.253
977.365
977.514
977.7
977.92
978.173
978.457
978.769
979.107
979.466
979.846
980.241
980.65
981.069
981.495
981.926
982.358
982.789
983.217
983.641
984.056
984.464
984.861
985.246
985.62
985.98
986.326
986.658
986.976
987.28
987.569
987.845
988.108
988.358
988.597
988.825
989.044
989.253
989.456
989.652
989.843
990.03
990.214
990.396
990.577
990.757
990.938
991.119
991.301
991.484
991.668
991.854
992.039
992.225
992.411
992.596
992.779
992.961
993.14
993.315
993.485
993.65
993.809
993.96
994.104
994.239
994.364
994.479
994.584
994.677
994.758
994.829
994.885
994.93
994.965
994.985
994.99
994.99
994.983
994.949
994.909
994.891
994.834
994.738
994.709
994.676
994.533
994.448
994.447
994.335
994.202
994.146
994.052
993.958
993.739
1017.25
1017.17
1017.07
1017
1016.79
1016.57
1016.41
1016.14
1015.88
1015.67
1015.4
1015.13
1014.89
1014.64
1014.38
1014.12
1013.88
1013.63
1013.38
1013.12
1012.87
1012.62
1012.36
1012.09
1011.83
1011.55
1011.27
1010.99
1010.69
1010.39
1010.08
1009.75
1009.42
1009.07
1008.71
1008.34
1007.95
1007.55
1007.13
1006.69
1006.24
1005.76
1005.27
1004.75
1004.22
1003.66
1003.08
1002.48
1001.86
1001.21
1000.54
999.841
999.123
998.382
997.619
996.836
996.032
995.21
994.371
993.517
992.65
991.774
990.889
989.999
989.106
988.215
987.328
986.447
985.577
984.72
983.879
983.058
982.257
981.481
980.73
980.007
979.313
978.649
978.017
977.416
976.848
976.312
975.808
975.336
974.896
974.487
974.108
973.758
973.437
973.144
972.877
972.637
972.421
972.23
972.062
971.916
971.792
971.689
971.606
971.543
971.498
971.472
971.463
971.471
971.496
971.537
971.593
971.664
971.75
971.849
971.962
972.087
972.224
972.373
972.533
972.703
972.883
973.073
973.27
973.476
973.689
973.908
974.133
974.364
974.599
974.839
975.081
975.327
975.575
975.824
976.075
976.326
976.577
976.827
977.076
977.323
977.568
977.81
978.049
978.284
978.516
978.743
978.964
979.181
979.393
979.598
979.797
979.989
980.175
980.353
980.525
980.689
980.846
980.995
981.136
981.269
981.393
981.509
981.617
981.716
981.806
981.888
981.961
982.024
982.079
982.124
982.16
982.186
982.202
982.208
982.203
982.187
982.159
982.119
982.067
982.001
981.922
981.827
981.718
981.592
981.45
981.292
981.117
980.926
980.719
980.497
980.262
980.014
979.756
979.491
979.222
978.952
978.684
978.423
978.172
977.935
977.716
977.519
977.348
977.206
977.096
977.02
976.98
976.978
977.014
977.09
977.203
977.356
977.545
977.769
978.028
978.317
978.635
978.977
979.343
979.729
980.131
980.545
980.97
981.402
981.837
982.274
982.71
983.142
983.569
983.988
984.398
984.797
985.185
985.559
985.92
986.267
986.599
986.916
987.219
987.507
987.782
988.043
988.291
988.528
988.754
988.971
989.179
989.38
989.575
989.765
989.952
990.137
990.32
990.502
990.684
990.867
991.051
991.237
991.424
991.613
991.804
991.995
992.186
992.378
992.569
992.759
992.948
993.134
993.316
993.495
993.667
993.834
993.995
994.148
994.292
994.427
994.553
994.669
994.775
994.869
994.953
995.027
995.087
995.138
995.182
995.213
995.23
995.249
995.264
995.251
995.244
995.264
995.245
995.2
995.229
995.251
995.19
995.19
995.252
995.24
995.206
995.226
995.252
995.109
1017.02
1016.97
1016.9
1016.78
1016.62
1016.5
1016.28
1016.05
1015.88
1015.64
1015.39
1015.17
1014.94
1014.69
1014.46
1014.23
1013.98
1013.74
1013.5
1013.26
1013.01
1012.76
1012.51
1012.25
1011.99
1011.72
1011.45
1011.17
1010.88
1010.58
1010.27
1009.95
1009.61
1009.27
1008.91
1008.54
1008.15
1007.75
1007.33
1006.89
1006.43
1005.95
1005.45
1004.93
1004.39
1003.83
1003.24
1002.63
1001.99
1001.33
1000.64
999.931
999.195
998.435
997.652
996.846
996.018
995.171
994.306
993.425
992.531
991.626
990.712
989.793
988.872
987.953
987.038
986.132
985.238
984.358
983.496
982.656
981.839
981.049
980.287
979.554
978.854
978.187
977.552
976.953
976.386
975.855
975.358
974.894
974.462
974.063
973.695
973.357
973.048
972.767
972.514
972.286
972.083
971.905
971.75
971.616
971.505
971.414
971.343
971.29
971.257
971.242
971.244
971.263
971.299
971.35
971.417
971.498
971.594
971.704
971.827
971.962
972.11
972.269
972.439
972.619
972.809
973.008
973.215
973.429
973.651
973.879
974.113
974.351
974.594
974.84
975.089
975.341
975.594
975.848
976.102
976.357
976.61
976.862
977.111
977.359
977.603
977.844
978.082
978.315
978.543
978.766
978.984
979.197
979.403
979.603
979.797
979.983
980.163
980.336
980.502
980.661
980.812
980.956
981.091
981.219
981.339
981.452
981.556
981.652
981.74
981.82
981.891
981.954
982.008
982.053
982.088
982.114
982.131
982.137
982.133
982.117
982.09
982.05
981.997
981.931
981.85
981.755
981.643
981.516
981.372
981.211
981.033
980.838