# vtk DataFile Version 2.0
LBE mesh
ASCII
DATASET STRUCTURED_POINTS
DIMENSIONS 300 100 1
ASPECT_RATIO 1 1 1
ORIGIN 0 0 0
POINT_DATA 30000
SCALARS rho double 1
LOOKUP_TABLE default
1047.31
1015.66
1014.93
1021.37
1019.52
1015.6
1015.39
1015.87
1015.08
1014.26
1014.07
1013.88
1013.48
1013.14
1012.92
1012.67
1012.4
1012.14
1011.91
1011.66
1011.41
1011.17
1010.92
1010.67
1010.41
1010.15
1009.88
1009.6
1009.32
1009.02
1008.72
1008.41
1008.09
1007.76
1007.41
1007.05
1006.68
1006.3
1005.9
1005.49
1005.06
1004.62
1004.16
1003.68
1003.19
1002.67
1002.15
1001.6
1001.03
1000.45
999.849
999.229
998.593
997.939
997.267
996.58
995.878
995.161
994.431
993.688
992.935
992.172
991.401
990.624
989.843
989.059
988.274
987.49
986.71
985.935
985.167
984.409
983.661
982.928
982.208
981.505
980.821
980.156
979.511
978.889
978.289
977.714
977.162
976.636
976.135
975.66
975.211
974.788
974.391
974.02
973.674
973.354
973.058
972.787
972.54
972.316
972.115
971.936
971.779
971.643
971.527
971.431
971.355
971.297
971.257
971.234
971.228
971.238
971.264
971.305
971.361
971.43
971.513
971.608
971.717
971.836
971.968
972.11
972.263
972.425
972.597
972.778
972.967
973.165
973.37
973.581
973.799
974.023
974.253
974.487
974.726
974.969
975.215
975.464
975.715
975.968
976.222
976.477
976.731
976.985
977.238
977.489
977.737
977.983
978.226
978.464
978.698
978.927
979.151
979.368
979.579
979.783
979.981
980.17
980.352
980.525
980.69
980.846
980.993
981.131
981.26
981.38
981.489
981.59
981.68
981.761
981.832
981.892
981.944
981.985
982.016
982.038
982.049
982.05
982.04
982.02
981.989
981.945
981.891
981.826
981.747
981.657
981.554
981.438
981.311
981.17
981.019
980.856
980.683
980.5
980.31
980.113
979.911
979.706
979.5
979.295
979.094
978.899
978.713
978.537
978.375
978.23
978.103
977.998
977.916
977.859
977.829
977.827
977.854
977.911
977.998
978.116
978.264
978.441
978.645
978.877
979.135
979.416
979.719
980.041
980.38
980.734
981.101
981.477
981.862
982.251
982.644
983.039
983.432
983.822
984.208
984.588
984.961
985.325
985.68
986.025
986.358
986.681
986.992
987.291
987.578
987.853
988.117
988.369
988.611
988.842
989.063
989.276
989.48
989.676
989.865
990.047
990.224
990.395
990.562
990.724
990.883
991.038
991.19
991.339
991.485
991.627
991.767
991.903
992.035
992.163
992.286
992.405
992.517
992.622
992.72
992.81
992.89
992.961
993.02
993.067
993.101
993.12
993.123
993.11
993.079
993.025
992.948
992.856
992.733
992.561
992.377
992.188
991.876
991.476
991.226
990.844
989.841
989.164
989.37
987.385
983.379
985.485
986.369
961.589
1030.22
1026.67
1022.58
1017.37
1017.53
1017.68
1016.48
1015.3
1015.04
1014.77
1014.27
1013.84
1013.58
1013.3
1012.99
1012.71
1012.46
1012.21
1011.95
1011.7
1011.45
1011.2
1010.94
1010.69
1010.42
1010.16
1009.88
1009.61
1009.32
1009.02
1008.72
1008.4
1008.08
1007.74
1007.39
1007.03
1006.66
1006.28
1005.88
1005.46
1005.03
1004.58
1004.12
1003.64
1003.15
1002.64
1002.1
1001.56
1000.99
1000.41
999.804
999.184
998.547
997.892
997.221
996.534
995.832
995.115
994.386
993.644
992.892
992.13
991.362
990.586
989.807
989.025
988.243
987.462
986.684
985.912
985.148
984.393
983.649
982.918
982.202
981.503
980.822
980.16
979.519
978.9
978.304
977.731
977.183
976.659
976.161
975.689
975.242
974.821
974.426
974.057
973.713
973.394
973.099
972.83
972.583
972.36
972.16
971.982
971.825
971.69
971.574
971.479
971.402
971.344
971.304
971.281
971.275
971.285
971.31
971.351
971.406
971.475
971.557
971.652
971.759
971.879
972.009
972.15
972.302
972.464
972.635
972.815
973.003
973.199
973.403
973.614
973.831
974.054
974.283
974.517
974.754
974.996
975.241
975.489
975.74
975.992
976.245
976.499
976.753
977.006
977.258
977.509
977.757
978.002
978.244
978.482
978.716
978.944
979.168
979.385
979.596
979.8
979.997
980.187
980.368
980.542
980.707
980.863
981.01
981.148
981.276
981.396
981.505
981.605
981.695
981.776
981.846
981.907
981.958
981.999
982.03
982.052
982.063
982.063
982.054
982.033
982.002
981.959
981.906
981.84
981.763
981.673
981.572
981.457
981.331
981.193
981.043
980.882
980.711
980.53
980.342
980.147
979.947
979.743
979.539
979.335
979.135
978.94
978.753
978.578
978.415
978.269
978.141
978.034
977.95
977.89
977.857
977.852
977.876
977.93
978.013
978.127
978.271
978.444
978.645
978.873
979.127
979.405
979.704
980.023
980.359
980.711
981.075
981.449
981.832
982.22
982.612
983.005
983.397
983.787
984.173
984.553
984.925
985.29
985.646
985.991
986.325
986.649
986.96
987.261
987.549
987.825
988.09
988.344
988.587
988.819
989.042
989.255
989.46
989.657
989.847
990.03
990.207
990.379
990.546
990.709
990.867
991.023
991.174
991.323
991.469
991.611
991.75
991.885
992.017
992.144
992.267
992.384
992.495
992.6
992.697
992.786
992.865
992.934
992.992
993.038
993.07
993.088
993.09
993.073
993.038
992.984
992.906
992.799
992.671
992.517
992.308
992.058
991.809
991.473
990.972
990.512
990.108
989.133
987.834
987.37
986.171
981.807
977.831
975.667
1022.13
1026.93
1022.25
1017.94
1018.17
1017.87
1016.46
1015.5
1015.28
1014.91
1014.37
1013.96
1013.69
1013.39
1013.07
1012.79
1012.53
1012.26
1012
1011.74
1011.49
1011.23
1010.97
1010.71
1010.45
1010.18
1009.9
1009.62
1009.33
1009.03
1008.72
1008.41
1008.08
1007.74
1007.39
1007.03
1006.66
1006.27
1005.87
1005.45
1005.02
1004.57
1004.11
1003.63
1003.13
1002.61
1002.08
1001.53
1000.96
1000.38
999.774
999.153
998.514
997.858
997.186
996.498
995.795
995.077
994.347
993.604
992.852
992.09
991.32
990.545
989.766
988.984
988.202
987.422
986.645
985.874
985.111
984.357
983.615
982.886
982.172
981.475
980.796
980.137
979.498
978.882
978.288
977.718
977.173
976.652
976.156
975.687
975.242
974.824
974.432
974.064
973.723
973.406
973.114
972.846
972.601
972.38
972.181
972.004
971.849
971.715
971.6
971.506
971.43
971.372
971.333
971.31
971.305
971.315
971.341
971.381
971.437
971.505
971.588
971.683
971.79
971.909
972.039
972.18
972.332
972.493
972.664
972.843
973.031
973.227
973.43
973.64
973.857
974.08
974.308
974.541
974.779
975.02
975.265
975.513
975.763
976.014
976.267
976.521
976.775
977.028
977.28
977.53
977.779
978.024
978.266
978.504
978.738
978.967
979.19
979.408
979.619
979.823
980.02
980.21
980.392
980.566
980.731
980.887
981.034
981.172
981.301
981.42
981.53
981.63
981.72
981.8
981.87
981.931
981.982
982.023
982.054
982.075
982.085
982.086
982.077
982.057
982.025
981.984
981.93
981.866
981.789
981.701
981.6
981.487
981.362
981.225
981.076
980.916
980.746
980.567
980.379
980.184
979.984
979.78
979.574
979.37
979.168
978.971
978.782
978.603
978.438
978.288
978.156
978.045
977.957
977.893
977.857
977.847
977.867
977.917
977.997
978.107
978.248
978.418
978.617
978.842
979.094
979.37
979.668
979.986
980.322
980.673
981.036
981.411
981.794
982.182
982.575
982.969
983.362
983.753
984.14
984.521
984.895
985.261
985.618
985.964
986.3
986.625
986.938
987.239
987.528
987.806
988.072
988.327
988.57
988.803
989.026
989.241
989.446
989.643
989.833
990.016
990.193
990.365
990.532
990.694
990.853
991.008
991.159
991.307
991.453
991.595
991.733
991.868
992
992.127
992.249
992.367
992.478
992.582
992.679
992.767
992.846
992.916
992.974
993.019
993.051
993.068
993.07
993.053
993.016
992.961
992.885
992.776
992.637
992.49
992.296
992.013
991.742
991.495
990.982
990.317
990.095
989.54
987.575
986.765
987.768
983.274
977.353
981.583
1021.86
1020.58
1020.03
1021.2
1018.68
1016.57
1016.51
1016.41
1015.49
1014.76
1014.51
1014.23
1013.8
1013.44
1013.17
1012.9
1012.6
1012.33
1012.07
1011.81
1011.55
1011.28
1011.02
1010.76
1010.49
1010.22
1009.94
1009.65
1009.36
1009.06
1008.75
1008.43
1008.1
1007.76
1007.41
1007.05
1006.67
1006.28
1005.88
1005.46
1005.02
1004.57
1004.11
1003.63
1003.13
1002.61
1002.08
1001.52
1000.95
1000.36
999.759
999.135
998.493
997.835
997.16
996.469
995.763
995.043
994.309
993.564
992.808
992.043
991.271
990.493
989.711
988.928
988.144
987.361
986.583
985.811
985.047
984.293
983.55
982.822
982.108
981.412
980.734
980.076
979.439
978.825
978.234
977.667
977.123
976.606
976.113
975.647
975.206
974.791
974.401
974.037
973.698
973.385
973.095
972.83
972.588
972.369
972.174
971.999
971.846
971.714
971.602
971.509
971.435
971.379
971.341
971.319
971.315
971.327
971.353
971.395
971.451
971.521
971.604
971.699
971.807
971.927
972.057
972.199
972.35
972.512
972.683
972.863
973.051
973.247
973.45
973.661
973.878
974.1
974.329
974.562
974.799
975.041
975.286
975.534
975.785
976.037
976.29
976.544
976.798
977.051
977.304
977.555
977.803
978.049
978.292
978.53
978.765
978.994
979.218
979.436
979.648
979.853
980.05
980.24
980.422
980.597
980.762
980.918
981.066
981.204
981.333
981.452
981.562
981.662
981.752
981.832
981.903
981.963
982.014
982.055
982.086
982.106
982.117
982.118
982.109
982.089
982.059
982.017
981.965
981.901
981.825
981.737
981.638
981.525
981.401
981.265
981.116
980.957
980.786
980.606
980.417
980.221
980.018
979.812
979.603
979.395
979.189
978.988
978.794
978.61
978.439
978.284
978.147
978.03
977.936
977.867
977.825
977.812
977.827
977.873
977.95
978.057
978.195
978.363
978.561
978.786
979.038
979.314
979.612
979.931
980.267
980.62
980.986
981.363
981.747
982.138
982.533
982.929
983.325
983.719
984.108
984.491
984.868
985.236
985.594
985.943
986.28
986.607
986.921
987.224
987.514
987.793
988.06
988.315
988.559
988.792
989.016
989.229
989.435
989.632
989.821
990.004
990.181
990.352
990.518
990.68
990.838
990.993
991.144
991.292
991.437
991.579
991.718
991.853
991.984
992.112
992.234
992.352
992.464
992.569
992.667
992.756
992.836
992.906
992.965
993.012
993.045
993.063
993.065
993.05
993.017
992.96
992.882
992.786
992.653
992.478
992.301
992.091
991.756
991.404
991.155
990.641
989.771
989.395
989.067
987.139
985.507
985.668
984.705
982.669
1021.85
1019.66
1019.58
1019.45
1017.96
1017.53
1016.96
1016.09
1015.46
1015.15
1014.75
1014.28
1013.9
1013.61
1013.3
1012.99
1012.7
1012.43
1012.16
1011.89
1011.63
1011.36
1011.1
1010.83
1010.56
1010.28
1010
1009.71
1009.42
1009.11
1008.8
1008.48
1008.15
1007.81
1007.45
1007.09
1006.71
1006.32
1005.91
1005.49
1005.05
1004.6
1004.13
1003.65
1003.15
1002.63
1002.09
1001.53
1000.96
1000.37
999.757
999.129
998.483
997.82
997.14
996.444
995.733
995.007
994.268
993.518
992.757
991.987
991.209
990.426
989.638
988.85
988.061
987.274
986.492
985.717
984.949
984.193
983.448
982.718
982.003
981.307
980.629
979.972
979.336
978.723
978.134
977.569
977.029
976.515
976.025
975.562
975.125
974.714
974.329
973.969
973.635
973.325
973.04
972.778
972.541
972.326
972.134
971.963
971.813
971.684
971.575
971.485
971.414
971.361
971.325
971.306
971.304
971.318
971.347
971.39
971.448
971.519
971.604
971.701
971.81
971.931
972.063
972.206
972.359
972.522
972.694
972.874
973.063
973.26
973.465
973.676
973.893
974.117
974.346
974.58
974.818
975.061
975.307
975.555
975.806
976.059
976.313
976.568
976.822
977.076
977.33
977.581
977.831
978.077
978.32
978.56
978.795
979.025
979.25
979.468
979.681
979.887
980.085
980.276
980.458
980.633
980.799
980.956
981.104
981.243
981.372
981.491
981.601
981.701
981.791
981.872
981.942
982.002
982.053
982.094
982.125
982.146
982.156
982.158
982.148
982.129
982.099
982.058
982.006
981.943
981.868
981.781
981.681
981.569
981.445
981.309
981.16
980.999
980.827
980.645
980.454
980.254
980.048
979.836
979.623
979.409
979.196
978.989
978.788
978.597
978.419
978.256
978.112
977.988
977.888
977.813
977.765
977.746
977.757
977.8
977.873
977.979
978.116
978.283
978.481
978.707
978.959
979.237
979.538
979.859
980.199
980.555
980.924
981.305
981.693
982.088
982.487
982.887
983.286
983.683
984.075
984.462
984.841
985.212
985.574
985.924
986.264
986.592
986.908
987.212
987.504
987.783
988.05
988.306
988.55
988.784
989.007
989.22
989.425
989.621
989.81
989.993
990.169
990.339
990.505
990.666
990.823
990.978
991.129
991.277
991.422
991.564
991.703
991.839
991.971
992.099
992.223
992.342
992.455
992.562
992.661
992.753
992.835
992.907
992.968
993.017
993.053
993.074
993.079
993.067
993.038
992.989
992.911
992.817
992.706
992.542
992.341
992.162
991.917
991.504
991.182
990.975
990.238
989.34
989.394
988.688
986.431
986.226
986.363
984.414
1019.76
1019.77
1019.34
1017.86
1017.98
1017.81
1016.62
1015.98
1015.8
1015.36
1014.76
1014.38
1014.11
1013.77
1013.41
1013.12
1012.85
1012.56
1012.28
1012.01
1011.74
1011.47
1011.2
1010.93
1010.65
1010.37
1010.09
1009.8
1009.5
1009.19
1008.88
1008.56
1008.22
1007.88
1007.52
1007.15
1006.77
1006.38
1005.97
1005.55
1005.11
1004.65
1004.18
1003.69
1003.19
1002.66
1002.12
1001.56
1000.98
1000.38
999.769
999.135
998.483
997.813
997.127
996.423
995.704
994.971
994.224
993.465
992.695
991.917
991.131
990.339
989.544
988.747
987.951
987.158
986.369
985.587
984.814
984.053
983.304
982.571
981.854
981.155
980.476
979.819
979.184
978.572
977.985
977.423
976.886
976.374
975.889
975.431
974.998
974.592
974.212
973.857
973.528
973.224
972.944
972.688
972.455
972.246
972.058
971.892
971.747
971.622
971.518
971.432
971.365
971.316
971.284
971.268
971.269
971.286
971.319
971.365
971.426
971.5
971.587
971.687
971.799
971.922
972.056
972.201
972.357
972.521
972.695
972.878
973.069
973.267
973.473
973.686
973.905
974.13
974.361
974.596
974.836
975.079
975.326
975.577
975.829
976.082
976.337
976.593
976.849
977.104
977.358
977.61
977.861
978.108
978.353
978.593
978.829
979.059
979.285
979.504
979.718
979.924
980.123
980.315
980.498
980.673
980.84
980.997
981.146
981.285
981.414
981.534
981.644
981.745
981.835
981.916
981.986
982.047
982.098
982.138
982.169
982.19
982.201
982.202
982.193
982.174
982.144
982.104
982.052
981.989
981.914
981.827
981.728
981.615
981.49
981.353
981.202
981.04
980.865
980.68
980.484
980.279
980.068
979.851
979.63
979.408
979.188
978.972
978.762
978.563
978.376
978.205
978.052
977.921
977.813
977.732
977.678
977.654
977.662
977.701
977.773
977.877
978.013
978.181
978.38
978.607
978.863
979.144
979.449
979.774
980.118
980.479
980.853
981.238
981.632
982.032
982.435
982.839
983.244
983.645
984.041
984.432
984.815
985.189
985.553
985.907
986.249
986.579
986.896
987.202
987.494
987.774
988.042
988.298
988.542
988.775
988.998
989.211
989.414
989.61
989.798
989.979
990.155
990.325
990.49
990.651
990.808
990.962
991.113
991.261
991.407
991.55
991.69
991.827
991.96
992.09
992.216
992.337
992.452
992.562
992.663
992.758
992.843
992.918
992.983
993.036
993.076
993.102
993.113
993.106
993.081
993.041
992.98
992.884
992.775
992.657
992.476
992.242
992.067
991.837
991.365
991.006
990.892
990.185
989.194
989.141
988.821
987.524
986.727
986.692
1018.71
1019.09
1018.6
1017.95
1017.75
1016.99
1016.61
1016.35
1015.77
1015.23
1014.93
1014.63
1014.22
1013.86
1013.57
1013.29
1012.98
1012.69
1012.42
1012.14
1011.87
1011.59
1011.32
1011.05
1010.77
1010.49
1010.2
1009.91
1009.61
1009.3
1008.98
1008.66
1008.32
1007.98
1007.62
1007.25
1006.86
1006.47
1006.05
1005.63
1005.19
1004.73
1004.25
1003.76
1003.25
1002.72
1002.17
1001.61
1001.02
1000.42
999.795
999.153
998.493
997.814
997.118
996.405
995.676
994.932
994.174
993.404
992.624
991.833
991.036
990.233
989.427
988.62
987.813
987.01
986.212
985.422
984.641
983.873
983.118
982.38
981.659
980.957
980.276
979.618
978.982
978.372
977.786
977.226
976.692
976.185
975.704
975.251
974.824
974.423
974.049
973.701
973.378
973.08
972.807
972.557
972.331
972.128
971.946
971.786
971.647
971.528
971.429
971.349
971.287
971.243
971.216
971.205
971.211
971.232
971.269
971.32
971.384
971.463
971.554
971.657
971.772
971.899
972.037
972.185
972.344
972.512
972.688
972.874
973.068
973.269
973.478
973.693
973.914
974.142
974.374
974.611
974.853
975.098
975.347
975.598
975.852
976.107
976.364
976.62
976.877
977.133
977.388
977.642
977.893
978.141
978.387
978.627
978.864
979.095
979.321
979.542
979.755
979.962
980.162
980.354
980.538
980.714
980.881
981.039
981.188
981.327
981.458
981.578
981.688
981.789
981.88
981.96
982.031
982.092
982.143
982.184
982.215
982.236
982.247
982.248
982.239
982.22
982.191
982.15
982.098
982.035
981.96
981.873
981.773
981.66
981.533
981.393
981.24
981.075
980.897
980.706
980.505
980.294
980.076
979.851
979.622
979.391
979.162
978.936
978.717
978.508
978.312
978.132
977.97
977.831
977.716
977.628
977.569
977.54
977.544
977.581
977.651
977.755
977.892
978.062
978.262
978.493
978.752
979.038
979.347
979.678
980.027
980.394
980.774
981.165
981.564
981.97
982.378
982.789
983.198
983.603
984.005
984.4
984.786
985.164
985.531
985.887
986.232
986.564
986.883
987.19
987.483
987.764
988.031
988.287
988.531
988.764
988.986
989.198
989.401
989.596
989.783
989.964
990.138
990.307
990.472
990.633
990.79
990.944
991.096
991.245
991.391
991.536
991.677
991.816
991.952
992.084
992.213
992.337
992.455
992.568
992.673
992.772
992.861
992.942
993.011
993.07
993.116
993.148
993.166
993.169
993.153
993.118
993.072
993.001
992.894
992.781
992.665
992.465
992.229
992.091
991.84
991.342
991.109
991
990.219
989.609
989.609
988.968
988.299
988.194
1018.43
1018.12
1017.88
1017.99
1017.35
1016.75
1016.65
1016.2
1015.68
1015.37
1015.07
1014.66
1014.3
1014.02
1013.73
1013.41
1013.11
1012.84
1012.57
1012.29
1012.01
1011.74
1011.47
1011.19
1010.91
1010.63
1010.34
1010.04
1009.74
1009.43
1009.11
1008.79
1008.45
1008.1
1007.74
1007.37
1006.98
1006.58
1006.17
1005.74
1005.29
1004.83
1004.35
1003.85
1003.33
1002.8
1002.25
1001.67
1001.08
1000.47
999.836
999.184
998.513
997.824
997.116
996.391
995.649
994.892
994.12
993.337
992.542
991.737
990.925
990.108
989.288
988.467
987.648
986.832
986.022
985.221
984.43
983.653
982.891
982.145
981.419
980.713
980.029
979.369
978.733
978.123
977.539
976.981
976.451
975.947
975.472
975.024
974.603
974.209
973.842
973.501
973.186
972.895
972.629
972.388
972.169
971.973
971.799
971.646
971.514
971.402
971.309
971.236
971.18
971.142
971.121
971.117
971.128
971.155
971.197
971.253
971.323
971.406
971.502
971.611
971.731
971.862
972.005
972.157
972.32
972.492
972.673
972.863
973.06
973.266
973.478
973.696
973.921
974.151
974.387
974.626
974.871
975.118
975.369
975.622
975.878
976.135
976.392
976.65
976.909
977.165
977.422
977.676
977.927
978.176
978.422
978.663
978.9
979.132
979.358
979.578
979.792
979.999
980.199
980.392
980.576
980.752
980.919
981.077
981.227
981.367
981.497
981.618
981.728
981.83
981.921
982.002
982.073
982.134
982.185
982.226
982.258
982.279
982.29
982.291
982.283
982.263
982.234
982.193
982.141
982.077
982.001
981.913
981.811
981.696
981.568
981.425
981.269
981.1
980.917
980.721
980.514
980.296
980.069
979.836
979.599
979.358
979.119
978.883
978.654
978.435
978.229
978.039
977.869
977.722
977.6
977.506
977.442
977.409
977.41
977.445
977.515
977.619
977.758
977.929
978.133
978.368
978.632
978.922
979.237
979.574
979.93
980.302
980.689
981.086
981.492
981.903
982.318
982.733
983.148
983.559
983.965
984.364
984.755
985.136
985.506
985.865
986.212
986.546
986.867
987.174
987.468
987.749
988.017
988.273
988.516
988.748
988.97
989.181
989.383
989.577
989.764
989.944
990.118
990.287
990.451
990.612
990.77
990.925
991.077
991.227
991.376
991.522
991.666
991.807
991.946
992.082
992.214
992.342
992.464
992.581
992.692
992.795
992.891
992.977
993.053
993.118
993.172
993.213
993.239
993.252
993.252
993.23
993.19
993.144
993.073
992.957
992.851
992.756
992.553
992.315
992.23
992.018
991.532
991.344
991.306
990.766
990.247
990.188
990.023
989.426
1017.97
1017.76
1017.62
1017.42
1017.02
1016.86
1016.44
1015.98
1015.76
1015.45
1015.03
1014.71
1014.45
1014.14
1013.82
1013.53
1013.27
1012.99
1012.71
1012.44
1012.17
1011.89
1011.62
1011.34
1011.07
1010.78
1010.49
1010.2
1009.9
1009.58
1009.27
1008.94
1008.6
1008.25
1007.89
1007.51
1007.12
1006.72
1006.3
1005.87
1005.42
1004.95
1004.47
1003.96
1003.44
1002.9
1002.34
1001.76
1001.15
1000.53
999.89
999.226
998.543
997.841
997.119
996.38
995.623
994.85
994.063
993.262
992.45
991.629
990.8
989.966
989.129
988.292
987.456
986.625
985.801
984.986
984.183
983.395
982.623
981.87
981.136
980.425
979.737
979.074
978.438
977.827
977.245
976.69
976.163
975.665
975.195
974.753
974.339
973.953
973.593
973.26
972.954
972.672
972.414
972.181
971.971
971.784
971.618
971.473
971.35
971.245
971.16
971.094
971.046
971.015
971.001
971.003
971.021
971.055
971.103
971.166
971.241
971.331
971.433
971.548
971.674
971.812
971.96
972.118
972.286
972.464
972.65
972.845
973.047
973.257
973.474
973.697
973.926
974.16
974.399
974.642
974.889
975.14
975.393
975.649
975.906
976.165
976.424
976.684
976.943
977.2
977.457
977.712
977.964
978.212
978.458
978.699
978.935
979.167
979.393
979.613
979.826
980.033
980.232
980.424
980.608
980.784
980.95
981.109
981.257
981.397
981.528
981.649
981.76
981.861
981.952
982.034
982.106
982.167
982.219
982.26
982.292
982.313
982.325
982.326
982.317
982.298
982.268
982.226
982.174
982.109
982.032
981.942
981.839
981.722
981.591
981.445
981.285
981.11
980.922
980.721
980.506
980.281
980.047
979.805
979.558
979.308
979.059
978.813
978.574
978.345
978.129
977.931
977.753
977.598
977.47
977.371
977.302
977.266
977.265
977.299
977.369
977.474
977.614
977.789
977.997
978.236
978.505
978.801
979.122
979.465
979.827
980.206
980.599
981.003
981.415
981.833
982.254
982.675
983.095
983.511
983.922
984.325
984.72
985.104
985.477
985.839
986.187
986.523
986.845
987.153
987.448
987.729
987.997
988.252
988.495
988.727
988.948
989.158
989.359
989.552
989.738
989.917
990.091
990.26
990.425
990.587
990.745
990.902
991.056
991.208
991.359
991.508
991.655
991.8
991.943
992.083
992.219
992.352
992.479
992.602
992.719
992.828
992.93
993.024
993.108
993.182
993.245
993.297
993.336
993.359
993.372
993.372
993.35
993.311
993.274
993.21
993.1
993.019
992.948
992.754
992.571
992.542
992.341
991.992
991.915
991.816
991.472
991.303
991.192
990.882
1017.44
1017.46
1017.35
1017
1016.87
1016.68
1016.25
1016
1015.74
1015.37
1015.07
1014.82
1014.51
1014.2
1013.94
1013.67
1013.39
1013.11
1012.85
1012.59
1012.32
1012.05
1011.78
1011.51
1011.23
1010.95
1010.66
1010.36
1010.06
1009.75
1009.43
1009.1
1008.76
1008.41
1008.05
1007.67
1007.28
1006.88
1006.46
1006.02
1005.57
1005.09
1004.6
1004.09
1003.57
1003.02
1002.45
1001.86
1001.24
1000.61
999.957
999.281
998.584
997.867
997.13
996.373
995.599
994.808
994.002
993.182
992.351
991.509
990.66
989.806
988.949
988.093
987.238
986.389
985.549
984.718
983.901
983.1
982.317
981.554
980.813
980.095
979.402
978.737
978.098
977.488
976.907
976.355
975.833
975.34
974.876
974.441
974.035
973.657
973.306
972.983
972.685
972.413
972.165
971.941
971.741
971.563
971.406
971.271
971.156
971.06
970.984
970.926
970.885
970.863
970.857
970.867
970.892
970.933
970.989
971.059
971.142
971.239
971.348
971.47
971.603
971.747
971.902
972.068
972.242
972.426
972.619
972.82
973.028
973.244
973.466
973.695
973.929
974.168
974.411
974.659
974.909
975.163
975.42
975.678
975.938
976.199
976.46
976.721
976.98
977.239
977.496
977.751
978.002
978.25
978.495
978.735
978.97
979.201
979.426
979.644
979.856
980.061
980.259
980.449
980.632
980.806
980.972
981.129
981.277
981.416
981.546
981.666
981.777
981.878
981.97
982.051
982.123
982.185
982.237
982.279
982.311
982.333
982.344
982.346
982.337
982.318
982.288
982.246
982.192
982.126
982.048
981.956
981.851
981.731
981.597
981.447
981.283
981.104
980.91
980.703
980.482
980.249
980.007
979.757
979.501
979.242
978.983
978.728
978.479
978.241
978.018
977.811
977.626
977.465
977.331
977.227
977.155
977.117
977.114
977.148
977.218
977.325
977.468
977.646
977.858
978.102
978.376
978.678
979.005
979.354
979.723
980.109
980.509
980.919
981.338
981.762
982.188
982.615
983.04
983.461
983.876
984.283
984.681
985.068
985.444
985.807
986.158
986.494
986.817
987.126
987.421
987.702
987.97
988.224
988.467
988.697
988.917
989.126
989.327
989.519
989.705
989.884
990.058
990.227
990.393
990.556
990.716
990.874
991.031
991.186
991.34
991.493
991.644
991.794
991.941
992.086
992.228
992.366
992.501
992.63
992.753
992.871
992.981
993.083
993.177
993.262
993.335
993.398
993.452
993.492
993.517
993.534
993.543
993.526
993.497
993.482
993.435
993.341
993.3
993.274
993.114
992.994
993.028
992.916
992.693
992.687
992.704
992.536
992.439
992.372
1017.14
1017.13
1017.01
1016.86
1016.7
1016.39
1016.19
1015.98
1015.64
1015.36
1015.13
1014.85
1014.55
1014.3
1014.04
1013.77
1013.5
1013.25
1012.99
1012.73
1012.47
1012.2
1011.94
1011.67
1011.39
1011.11
1010.83
1010.54
1010.24
1009.93
1009.61
1009.28
1008.94
1008.59
1008.23
1007.85
1007.46
1007.05
1006.63
1006.19
1005.73
1005.25
1004.76
1004.24
1003.71
1003.15
1002.57
1001.97
1001.35
1000.7
1000.04
999.347
998.634
997.901
997.146
996.371
995.578
994.766
993.938
993.097
992.243
991.379
990.507
989.63
988.751
987.872
986.996
986.127
985.267
984.419
983.585
982.769
981.973
981.199
980.448
979.724
979.026
978.356
977.716
977.106
976.528
975.979
975.461
974.974
974.518
974.091
973.693
973.325
972.984
972.67
972.383
972.121
971.884
971.671
971.481
971.313
971.167
971.041
970.936
970.85
970.782
970.733
970.702
970.688
970.69
970.709
970.743
970.792
970.856
970.933
971.025
971.13
971.247
971.376
971.517
971.67
971.833
972.006
972.188
972.38
972.58
972.788
973.003
973.226
973.455
973.69
973.93
974.174
974.423
974.676
974.931
975.189
975.45
975.711
975.974
976.237
976.499
976.761
977.022
977.281
977.538
977.792
978.043
978.29
978.534
978.772
979.006
979.234
979.456
979.672
979.881
980.083
980.278
980.466
980.646
980.818
980.981
981.136
981.282
981.419
981.547
981.667
981.777
981.877
981.968
982.049
982.121
982.183
982.235
982.277
982.309
982.332
982.344
982.346
982.337
982.317
982.287
982.244
982.19
982.123
982.043
981.949
981.842
981.719
981.582
981.429
981.261
981.077
980.878
980.665
980.438
980.199
979.949
979.691
979.427
979.16
978.893
978.63
978.373
978.128
977.897
977.684
977.492
977.326
977.188
977.08
977.006
976.966
976.963
976.997
977.068
977.177
977.323
977.505
977.721
977.97
978.25
978.557
978.89
979.246
979.621
980.014
980.419
980.836
981.261
981.69
982.122
982.554
982.984
983.409
983.827
984.238
984.638
985.028
985.406
985.771
986.123
986.46
986.784
987.092
987.387
987.667
987.934
988.188
988.429
988.659
988.877
989.086
989.286
989.477
989.662
989.841
990.016
990.186
990.353
990.518
990.68
990.841
991.001
991.161
991.319
991.476
991.632
991.787
991.94
992.091
992.24
992.385
992.527
992.664
992.796
992.922
993.042
993.154
993.258
993.355
993.442
993.519
993.586
993.645
993.691
993.724
993.753
993.776
993.774
993.768
993.784
993.765
993.711
993.727
993.745
993.661
993.644
993.722
993.703
993.678
993.748
993.794
993.862
993.841
1016.92
1016.84
1016.75
1016.69
1016.49
1016.27
1016.12
1015.85
1015.6
1015.39
1015.13
1014.86
1014.62
1014.38
1014.11
1013.86
1013.62
1013.37
1013.12
1012.86
1012.61
1012.36
1012.09
1011.83
1011.56
1011.28
1011
1010.71
1010.42
1010.11
1009.79
1009.47
1009.13
1008.78
1008.42
1008.04
1007.65
1007.24
1006.81
1006.37
1005.91
1005.43
1004.93
1004.41
1003.86
1003.3
1002.71
1002.1
1001.47
1000.81
1000.13
999.423
998.694
997.942
997.168
996.373
995.558
994.724
993.873
993.006
992.127
991.238
990.34
989.438
988.533
987.629
986.729
985.837
984.955
984.087
983.235
982.402
981.591
980.805
980.044
979.312
978.608
977.935
977.294
976.684
976.107
975.563
975.051
974.571
974.122
973.704
973.316
972.958
972.628
972.326
972.05
971.8
971.574
971.373
971.194
971.037
970.902
970.787
970.692
970.616
970.558
970.519
970.497
970.492
970.504
970.531
970.574
970.632
970.705
970.791
970.891
971.005
971.131
971.269
971.419
971.58
971.752
971.933
972.124
972.325
972.533
972.75
972.974
973.204
973.441
973.683
973.93
974.181
974.436
974.695
974.955
975.218
975.482
975.748
976.014
976.279
976.544
976.807
977.069
977.328
977.585
977.838
978.088
978.333
978.574
978.81
979.041
979.265
979.484
979.696
979.902
980.1
980.291
980.474
980.65
980.818
980.977
981.129
981.271
981.405
981.53
981.647
981.755
981.853
981.942
982.022
982.093
982.154
982.206
982.248
982.281
982.303
982.316
982.318
982.309
982.29
982.259
982.216
982.162
982.094
982.013
981.918
981.808
981.683
981.543
981.387
981.215
981.027
980.824
980.605
980.373
980.128
979.873
979.609
979.338
979.065
978.792
978.522
978.259
978.007
977.771
977.553
977.357
977.187
977.045
976.935
976.859
976.819
976.816
976.851
976.924
977.036
977.185
977.371
977.591
977.845
978.129
978.443
978.781
979.143
979.524
979.923
980.334
980.757
981.187
981.621
982.058
982.494
982.928
983.357
983.778
984.191
984.594
984.986
985.365
985.731
986.083
986.42
986.743
987.052
987.346
987.625
987.89
988.143
988.383
988.611
988.827
989.035
989.234
989.425
989.61
989.789
989.965
990.136
990.305
990.472
990.638
990.803
990.967
991.13
991.294
991.456
991.618
991.779
991.94
992.098
992.254
992.408
992.557
992.703
992.845
992.981
993.111
993.235
993.352
993.461
993.562
993.656
993.739
993.814
993.885
993.944
993.991
994.041
994.089
994.11
994.14
994.201
994.224
994.229
994.313
994.399
994.413
994.5
994.666
994.773
994.881
995.06
995.269
995.36
1016.69
1016.65
1016.59
1016.47
1016.32
1016.2
1015.99
1015.77
1015.6
1015.37
1015.12
1014.9
1014.68
1014.43
1014.19
1013.96
1013.72
1013.48
1013.24
1013
1012.75
1012.5
1012.25
1011.99
1011.73
1011.45
1011.18
1010.89
1010.6
1010.3
1009.98
1009.66
1009.32
1008.98
1008.61
1008.24
1007.84
1007.43
1007.01
1006.56
1006.1
1005.62
1005.11
1004.58
1004.03
1003.46
1002.87
1002.24
1001.6
1000.93
1000.23
999.509
998.762
997.991
997.197
996.379
995.54
994.681
993.804
992.911
992.004
991.086
990.16
989.228
988.295
987.364
986.437
985.519
984.613
983.722
982.849
981.999
981.171
980.371
979.6
978.858
978.149
977.472
976.829
976.221
975.647
975.107
974.602
974.129
973.69
973.283
972.906
972.559
972.242
971.952
971.689
971.451
971.238
971.049
970.883
970.738
970.615
970.511
970.427
970.362
970.315
970.286
970.274
970.278
970.299
970.336
970.389
970.456
970.538
970.634
970.743
970.866
971.001
971.149
971.308
971.479
971.66
971.851
972.052
972.261
972.48
972.705
972.938
973.177
973.423
973.673
973.928
974.187
974.449
974.714
974.981
975.249
975.519
975.788
976.058
976.326
976.593
976.858
977.121
977.38
977.636
977.889
978.137
978.38
978.618
978.851
979.077
979.298
979.511
979.719
979.919
980.112
980.297
980.475
980.645
980.807
980.961
981.106
981.244
981.373
981.494
981.606
981.71
981.805
981.891
981.968
982.037
982.097
982.147
982.189
982.221
982.243
982.255
982.258
982.25
982.23
982.2
982.157