# vtk DataFile Version 2.0
LBE mesh
ASCII
DATASET STRUCTURED_POINTS
DIMENSIONS 300 100 1
ASPECT_RATIO 1 1 1
ORIGIN 0 0 0
POINT_DATA 30000
SCALARS rho double 1
LOOKUP_TABLE default
1047.14
1015.49
1014.79
1021.26
1019.44
1015.55
1015.37
1015.89
1015.12
1014.34
1014.18
1014.03
1013.66
1013.36
1013.17
1012.96
1012.72
1012.5
1012.3
1012.09
1011.87
1011.66
1011.45
1011.22
1011
1010.76
1010.53
1010.28
1010.02
1009.75
1009.48
1009.19
1008.89
1008.58
1008.25
1007.91
1007.56
1007.19
1006.81
1006.41
1006
1005.57
1005.12
1004.66
1004.17
1003.68
1003.16
1002.63
1002.08
1001.51
1000.92
1000.32
999.706
999.072
998.423
997.76
997.082
996.391
995.688
994.973
994.249
993.516
992.775
992.028
991.276
990.522
989.766
989.01
988.257
987.507
986.764
986.028
985.301
984.585
983.883
983.194
982.521
981.865
981.228
980.609
980.012
979.436
978.881
978.349
977.841
977.355
976.892
976.454
976.038
975.645
975.274
974.926
974.599
974.295
974.01
973.747
973.502
973.276
973.068
972.878
972.704
972.547
972.404
972.278
972.165
972.066
971.981
971.908
971.848
971.801
971.764
971.739
971.726
971.722
971.729
971.745
971.771
971.806
971.849
971.899
971.958
972.023
972.095
972.172
972.255
972.342
972.434
972.53
972.628
972.729
972.833
972.939
973.046
973.153
973.262
973.371
973.48
973.589
973.698
973.806
973.913
974.02
974.126
974.232
974.338
974.443
974.549
974.654
974.759
974.865
974.973
975.081
975.191
975.303
975.417
975.534
975.654
975.777
975.904
976.035
976.17
976.31
976.454
976.604
976.758
976.918
977.083
977.253
977.428
977.609
977.794
977.984
978.178
978.377
978.58
978.786
978.995
979.207
979.422
979.639
979.858
980.077
980.298
980.519
980.739
980.959
981.177
981.394
981.608
981.82
982.029
982.234
982.435
982.631
982.823
983.009
983.189
983.362
983.529
983.688
983.839
983.982
984.116
984.242
984.357
984.462
984.558
984.642
984.716
984.778
984.829
984.867
984.894
984.909
984.911
984.901
984.88
984.846
984.799
984.742
984.672
984.592
984.501
984.4
984.289
984.169
984.041
983.905
983.763
983.614
983.461
983.303
983.143
982.981
982.818
982.655
982.494
982.336
982.181
982.031
981.888
981.751
981.623
981.504
981.394
981.296
981.209
981.135
981.073
981.025
980.991
980.971
980.965
980.973
980.995
981.031
981.08
981.142
981.217
981.303
981.4
981.507
981.622
981.746
981.875
982.011
982.149
982.291
982.434
982.576
982.716
982.853
982.985
983.109
983.225
983.33
983.423
983.503
983.565
983.611
983.637
983.637
983.611
983.566
983.485
983.349
983.196
983.03
982.737
982.351
982.103
981.717
980.73
980.061
980.241
978.296
974.458
976.58
977.475
953.621
1030.05
1026.52
1022.45
1017.26
1017.46
1017.63
1016.46
1015.32
1015.09
1014.85
1014.38
1013.99
1013.77
1013.52
1013.24
1013
1012.79
1012.56
1012.34
1012.12
1011.91
1011.69
1011.47
1011.24
1011.01
1010.77
1010.53
1010.28
1010.02
1009.75
1009.47
1009.18
1008.88
1008.56
1008.23
1007.89
1007.54
1007.17
1006.78
1006.38
1005.97
1005.53
1005.08
1004.62
1004.14
1003.64
1003.12
1002.59
1002.03
1001.47
1000.88
1000.28
999.661
999.027
998.378
997.714
997.037
996.347
995.645
994.932
994.208
993.477
992.737
991.992
991.243
990.491
989.737
988.985
988.234
987.488
986.747
986.015
985.291
984.579
983.88
983.195
982.525
981.872
981.238
980.623
980.029
979.455
978.904
978.375
977.869
977.386
976.926
976.489
976.075
975.684
975.315
974.969
974.644
974.341
974.057
973.794
973.55
973.325
973.118
972.928
972.755
972.598
972.456
972.329
972.217
972.118
972.033
971.96
971.9
971.852
971.816
971.791
971.777
971.773
971.78
971.796
971.821
971.856
971.899
971.949
972.007
972.072
972.143
972.22
972.302
972.389
972.48
972.575
972.673
972.773
972.876
972.981
973.087
973.194
973.301
973.41
973.518
973.626
973.733
973.84
973.947
974.053
974.159
974.264
974.369
974.473
974.577
974.682
974.787
974.892
974.999
975.106
975.216
975.326
975.44
975.556
975.675
975.797
975.923
976.053
976.188
976.326
976.47
976.619
976.772
976.931
977.095
977.263
977.438
977.617
977.801
977.989
978.183
978.38
978.582
978.787
978.995
979.206
979.42
979.636
979.853
980.072
980.292
980.511
980.73
980.949
981.167
981.383
981.597
981.808
982.016
982.22
982.421
982.616
982.807
982.993
983.172
983.345
983.512
983.671
983.822
983.965
984.1
984.225
984.341
984.447
984.543
984.628
984.702
984.765
984.817
984.856
984.884
984.9
984.904
984.895
984.875
984.842
984.798
984.741
984.673
984.594
984.505
984.405
984.296
984.177
984.05
983.915
983.773
983.626
983.473
983.316
983.156
982.995
982.832
982.67
982.508
982.35
982.195
982.045
981.901
981.764
981.634
981.514
981.404
981.304
981.216
981.14
981.078
981.028
980.992
980.969
980.961
980.967
980.987
981.021
981.068
981.128
981.201
981.285
981.38
981.484
981.598
981.719
981.847
981.98
982.117
982.257
982.398
982.538
982.677
982.811
982.941
983.064
983.178
983.281
983.372
983.449
983.51
983.552
983.573
983.573
983.546
983.486
983.401
983.283
983.107
982.883
982.653
982.329
981.842
981.386
980.982
980.023
978.757
978.303
977.177
973.011
969.24
967.292
1021.96
1026.78
1022.12
1017.83
1018.09
1017.82
1016.45
1015.52
1015.33
1014.99
1014.48
1014.11
1013.87
1013.61
1013.32
1013.07
1012.85
1012.62
1012.39
1012.17
1011.95
1011.72
1011.5
1011.27
1011.03
1010.79
1010.55
1010.29
1010.03
1009.76
1009.47
1009.18
1008.88
1008.56
1008.23
1007.89
1007.53
1007.16
1006.77
1006.37
1005.95
1005.52
1005.07
1004.6
1004.12
1003.62
1003.1
1002.56
1002.01
1001.44
1000.85
1000.25
999.631
998.996
998.346
997.682
997.004
996.313
995.61
994.896
994.173
993.441
992.702
991.957
991.208
990.456
989.704
988.952
988.202
987.457
986.718
985.987
985.266
984.556
983.859
983.176
982.509
981.859
981.227
980.615
980.023
979.453
978.905
978.379
977.876
977.395
976.938
976.503
976.092
975.704
975.337
974.993
974.671
974.369
974.088
973.826
973.584
973.36
973.154
972.965
972.792
972.636
972.495
972.369
972.256
972.158
972.073
972.001
971.941
971.893
971.857
971.831
971.817
971.814
971.82
971.836
971.861
971.895
971.937
971.987
972.045
972.109
972.18
972.256
972.338
972.424
972.515
972.609
972.706
972.806
972.909
973.012
973.118
973.224
973.331
973.438
973.545
973.652
973.759
973.866
973.972
974.077
974.182
974.286
974.39
974.493
974.597
974.701
974.805
974.909
975.015
975.122
975.23
975.34
975.453
975.568
975.686
975.807
975.933
976.062
976.195
976.333
976.476
976.623
976.776
976.933
977.096
977.264
977.438
977.616
977.799
977.987
978.179
978.376
978.577
978.781
978.989
979.2
979.413
979.628
979.845
980.063
980.282
980.501
980.72
980.938
981.156
981.371
981.585
981.795
982.003
982.207
982.408
982.603
982.794
982.98
983.159
983.333
983.499
983.659
983.811
983.954
984.089
984.215
984.332
984.439
984.536
984.622
984.697
984.761
984.814
984.855
984.884
984.901
984.906
984.899
984.88
984.848
984.805
984.749
984.682
984.604
984.516
984.417
984.308
984.189
984.063
983.928
983.786
983.638
983.486
983.328
983.168
983.005
982.842
982.679
982.516
982.356
982.2
982.048
981.903
981.764
981.633
981.511
981.399
981.297
981.207
981.129
981.064
981.013
980.975
980.951
980.94
980.945
980.963
980.995
981.04
981.099
981.17
981.253
981.346
981.45
981.562
981.683
981.81
981.942
982.079
982.218
982.359
982.499
982.637
982.771
982.901
983.023
983.137
983.24
983.331
983.407
983.468
983.51
983.529
983.528
983.504
983.442
983.347
983.237
983.075
982.82
982.57
982.334
981.834
981.184
980.956
980.401
978.496
977.722
978.697
974.42
968.847
973.126
1021.68
1020.43
1019.91
1021.1
1018.61
1016.52
1016.5
1016.43
1015.54
1014.84
1014.63
1014.38
1013.98
1013.66
1013.43
1013.18
1012.92
1012.68
1012.46
1012.23
1012
1011.77
1011.54
1011.31
1011.07
1010.83
1010.58
1010.32
1010.06
1009.78
1009.5
1009.2
1008.9
1008.58
1008.25
1007.9
1007.54
1007.17
1006.78
1006.38
1005.96
1005.52
1005.07
1004.6
1004.12
1003.61
1003.09
1002.56
1002
1001.43
1000.84
1000.24
999.614
998.977
998.324
997.658
996.977
996.284
995.579
994.863
994.137
993.402
992.661
991.914
991.163
990.41
989.656
988.903
988.152
987.407
986.668
985.937
985.216
984.506
983.81
983.128
982.463
981.815
981.186
980.577
979.987
979.42
978.875
978.352
977.853
977.376
976.922
976.491
976.083
975.698
975.335
974.994
974.675
974.376
974.097
973.838
973.598
973.376
973.172
972.984
972.813
972.658
972.518
972.393
972.281
972.183
972.098
972.026
971.967
971.919
971.882
971.857
971.842
971.838
971.844
971.86
971.885
971.918
971.96
972.01
972.067
972.131
972.201
972.277
972.358
972.444
972.534
972.628
972.725
972.824
972.926
973.029
973.134
973.24
973.346
973.453
973.56
973.666
973.772
973.878
973.984
974.088
974.193
974.296
974.399
974.502
974.605
974.708
974.811
974.915
975.02
975.126
975.233
975.343
975.455
975.569
975.686
975.807
975.931
976.06
976.192
976.329
976.471
976.618
976.769
976.926
977.089
977.256
977.428
977.606
977.789
977.976
978.169
978.365
978.565
978.77
978.977
979.188
979.401
979.616
979.833
980.05
980.27
980.489
980.708
980.926
981.144
981.359
981.573
981.784
981.992
982.196
982.397
982.593
982.784
982.97
983.15
983.324
983.492
983.652
983.805
983.949
984.085
984.212
984.33
984.438
984.536
984.623
984.701
984.766
984.82
984.862
984.893
984.911
984.918
984.911
984.893
984.862
984.82
984.765
984.699
984.621
984.533
984.433
984.325
984.206
984.079
983.943
983.801
983.652
983.498
983.339
983.177
983.013
982.847
982.682
982.517
982.355
982.196
982.042
981.894
981.752
981.619
981.494
981.379
981.275
981.183
981.102
981.035
980.981
980.941
980.914
980.903
980.905
980.922
980.953
980.997
981.055
981.125
981.207
981.3
981.404
981.517
981.637
981.764
981.897
982.034
982.175
982.316
982.457
982.596
982.732
982.863
982.986
983.101
983.206
983.298
983.376
983.437
983.481
983.505
983.501
983.475
983.427
983.337
983.2
983.055
982.87
982.556
982.219
981.974
981.466
980.611
980.231
979.905
978.054
976.494
976.722
975.964
974.281
1021.68
1019.51
1019.45
1019.36
1017.9
1017.49
1016.95
1016.11
1015.51
1015.23
1014.87
1014.43
1014.09
1013.83
1013.56
1013.28
1013.03
1012.79
1012.55
1012.31
1012.08
1011.85
1011.62
1011.38
1011.14
1010.89
1010.64
1010.38
1010.11
1009.83
1009.55
1009.25
1008.94
1008.62
1008.29
1007.94
1007.58
1007.2
1006.81
1006.41
1005.99
1005.55
1005.1
1004.62
1004.14
1003.63
1003.11
1002.57
1002.01
1001.44
1000.84
1000.23
999.609
998.968
998.312
997.641
996.956
996.258
995.547
994.826
994.095
993.356
992.61
991.858
991.103
990.345
989.587
988.831
988.077
987.329
986.587
985.855
985.133
984.422
983.726
983.045
982.38
981.734
981.107
980.5
979.914
979.351
978.809
978.29
977.795
977.322
976.873
976.447
976.043
975.662
975.304
974.967
974.651
974.356
974.081
973.826
973.589
973.369
973.167
972.982
972.813
972.659
972.521
972.397
972.286
972.189
972.104
972.033
971.973
971.925
971.888
971.863
971.848
971.843
971.849
971.864
971.888
971.921
971.963
972.012
972.068
972.132
972.202
972.277
972.358
972.443
972.533
972.627
972.723
972.822
972.924
973.027
973.131
973.237
973.343
973.449
973.556
973.663
973.769
973.874
973.979
974.084
974.188
974.291
974.394
974.497
974.599
974.702
974.805
974.908
975.013
975.118
975.225
975.334
975.445
975.558
975.675
975.795
975.919
976.047
976.179
976.315
976.457
976.603
976.754
976.91
977.072
977.239
977.412
977.589
977.772
977.959
978.152
978.348
978.549
978.753
978.961
979.172
979.385
979.601
979.818
980.036
980.256
980.476
980.695
980.914
981.132
981.348
981.562
981.774
981.983
982.188
982.389
982.586
982.778
982.965
983.146
983.321
983.489
983.65
983.804
983.95
984.087
984.216
984.335
984.445
984.544
984.633
984.712
984.779
984.834
984.878
984.91
984.93
984.937
984.932
984.914
984.884
984.842
984.788
984.722
984.644
984.555
984.455
984.345
984.225
984.097
983.96
983.815
983.664
983.508
983.347
983.182
983.015
982.846
982.677
982.51
982.344
982.182
982.025
981.873
981.728
981.591
981.463
981.345
981.238
981.143
981.06
980.99
980.933
980.891
980.863
980.849
980.85
980.866
980.896
980.94
980.997
981.067
981.149
981.243
981.347
981.461
981.582
981.711
981.845
981.984
982.126
982.269
982.413
982.554
982.693
982.826
982.952
983.07
983.177
983.272
983.354
983.418
983.464
983.493
983.497
983.47
983.423
983.353
983.227
983.057
982.901
982.671
982.272
981.953
981.738
981.007
980.123
980.159
979.483
977.352
977.238
977.548
976.008
1019.59
1019.63
1019.22
1017.76
1017.91
1017.77
1016.62
1016.01
1015.86
1015.45
1014.88
1014.54
1014.3
1013.99
1013.67
1013.41
1013.17
1012.92
1012.66
1012.43
1012.19
1011.96
1011.72
1011.48
1011.23
1010.98
1010.73
1010.46
1010.19
1009.91
1009.62
1009.33
1009.01
1008.69
1008.36
1008.01
1007.64
1007.27
1006.87
1006.47
1006.04
1005.6
1005.15
1004.67
1004.18
1003.67
1003.14
1002.6
1002.04
1001.46
1000.86
1000.25
999.616
998.969
998.306
997.628
996.936
996.231
995.513
994.785
994.046
993.299
992.546
991.787
991.024
990.26
989.495
988.732
987.974
987.22
986.474
985.738
985.013
984.301
983.603
982.922
982.258
981.613
980.987
980.383
979.8
979.24
978.703
978.189
977.698
977.23
976.787
976.366
975.968
975.593
975.24
974.908
974.598
974.308
974.037
973.786
973.553
973.337
973.138
972.956
972.789
972.638
972.501
972.378
972.268
972.172
972.087
972.016
971.956
971.908
971.871
971.845
971.829
971.823
971.828
971.843
971.866
971.898
971.939
971.987
972.043
972.106
972.175
972.25
972.331
972.416
972.505
972.599
972.695
972.795
972.896
972.999
973.104
973.21
973.316
973.423
973.53
973.637
973.744
973.849
973.955
974.06
974.165
974.268
974.372
974.475
974.578
974.68
974.783
974.887
974.991
975.096
975.203
975.312
975.423
975.537
975.653
975.773
975.897
976.024
976.156
976.292
976.433
976.58
976.731
976.887
977.049
977.216
977.389
977.567
977.75
977.938
978.13
978.327
978.529
978.734
978.942
979.154
979.368
979.585
979.803
980.022
980.243
980.463
980.684
980.904
981.122
981.339
981.554
981.767
981.977
982.183
982.385
982.583
982.776
982.964
983.146
983.322
983.492
983.654
983.809
983.956
984.095
984.226
984.347
984.458
984.559
984.65
984.73
984.798
984.856
984.901
984.934
984.955
984.963
984.959
984.942
984.912
984.871
984.816
984.75
984.671
984.581
984.48
984.369
984.247
984.116
983.976
983.83
983.675
983.516
983.351
983.183
983.011
982.84
982.667
982.495
982.325
982.159
981.997
981.841
981.692
981.551
981.42
981.298
981.187
981.089
981.003
980.93
980.871
980.826
980.796
980.781
980.781
980.796
980.825
980.868
980.925
980.996
981.079
981.174
981.279
981.395
981.518
981.65
981.786
981.928
982.073
982.219
982.366
982.511
982.653
982.789
982.92
983.042
983.153
983.253
983.339
983.409
983.461
983.491
983.504
983.492
983.442
983.373
983.289
983.135
982.922
982.756
982.527
982.058
981.69
981.555
980.849
979.877
979.821
979.562
978.407
977.821
978.164
1018.54
1018.95
1018.49
1017.86
1017.68
1016.96
1016.61
1016.37
1015.83
1015.32
1015.05
1014.78
1014.41
1014.08
1013.83
1013.58
1013.3
1013.04
1012.81
1012.57
1012.32
1012.08
1011.84
1011.6
1011.35
1011.1
1010.84
1010.58
1010.3
1010.02
1009.73
1009.43
1009.11
1008.79
1008.45
1008.1
1007.74
1007.36
1006.96
1006.55
1006.12
1005.68
1005.22
1004.74
1004.25
1003.73
1003.2
1002.65
1002.08
1001.5
1000.89
1000.27
999.635
998.979
998.307
997.62
996.919
996.204
995.476
994.737
993.989
993.231
992.467
991.698
990.925
990.152
989.378
988.607
987.84
987.08
986.328
985.586
984.856
984.141
983.441
982.758
982.094
981.449
980.826
980.224
979.644
979.088
978.555
978.046
977.561
977.1
976.662
976.248
975.857
975.489
975.142
974.817
974.513
974.229
973.964
973.718
973.489
973.278
973.083
972.904
972.74
972.591
972.456
972.334
972.225
972.129
972.046
971.974
971.914
971.864
971.827
971.799
971.783
971.776
971.779
971.792
971.814
971.845
971.885
971.932
971.987
972.049
972.118
972.192
972.272
972.357
972.446
972.54
972.636
972.736
972.838
972.942
973.048
973.154
973.262
973.37
973.478
973.586
973.694
973.801
973.908
974.014
974.12
974.225
974.329
974.433
974.537
974.641
974.745
974.849
974.954
975.061
975.168
975.278
975.389
975.503
975.62
975.74
975.864
975.992
976.124
976.261
976.403
976.549
976.701
976.858
977.021
977.189
977.362
977.541
977.725
977.914
978.107
978.305
978.507
978.714
978.923
979.136
979.352
979.569
979.789
980.01
980.231
980.453
980.675
980.896
981.116
981.334
981.55
981.764
981.975
982.182
982.386
982.584
982.779
982.968
983.151
983.329
983.5
983.664
983.82
983.969
984.109
984.241
984.364
984.477
984.58
984.672
984.754
984.824
984.883
984.929
984.964
984.985
984.995
984.991
984.975
984.945
984.903
984.848
984.781
984.701
984.61
984.507
984.393
984.269
984.135
983.992
983.842
983.684
983.521
983.352
983.179
983.003
982.826
982.648
982.472
982.297
982.126
981.96
981.799
981.646
981.501
981.365
981.239
981.124
981.022
980.933
980.857
980.796
980.749
980.717
980.7
980.699
980.713
980.742
980.785
980.843
980.914
980.999
981.095
981.203
981.32
981.447
981.581
981.721
981.866
982.015
982.165
982.316
982.465
982.612
982.754
982.889
983.016
983.133
983.239
983.33
983.407
983.468
983.506
983.522
983.523
983.494
983.423
983.341
983.245
983.059
982.829
982.682
982.417
981.907
981.647
981.507
980.731
980.133
980.171
979.641
979.162
979.439
1018.27
1017.98
1017.76
1017.91
1017.29
1016.72
1016.64
1016.23
1015.74
1015.46
1015.19
1014.82
1014.49
1014.25
1013.98
1013.7
1013.44
1013.2
1012.96
1012.71
1012.47
1012.23
1011.99
1011.74
1011.49
1011.24
1010.98
1010.71
1010.44
1010.15
1009.86
1009.56
1009.24
1008.91
1008.57
1008.22
1007.85
1007.47
1007.07
1006.66
1006.23
1005.78
1005.32
1004.84
1004.34
1003.82
1003.28
1002.72
1002.15
1001.55
1000.94
1000.31
999.664
998.998
998.316
997.617
996.904
996.177
995.437
994.685
993.923
993.153
992.376
991.593
990.808
990.022
989.237
988.455
987.678
986.908
986.148
985.399
984.664
983.943
983.24
982.555
981.889
981.245
980.623
980.023
979.447
978.895
978.368
977.865
977.386
976.932
976.502
976.095
975.712
975.351
975.012
974.694
974.397
974.12
973.862
973.621
973.398
973.192
973.001
972.826
972.665
972.519
972.386
972.265
972.158
972.062
971.978
971.906
971.845
971.795
971.755
971.726
971.708
971.699
971.701
971.711
971.731
971.761
971.798
971.843
971.897
971.958
972.025
972.098
972.178
972.262
972.351
972.445
972.542
972.642
972.745
972.85
972.957
973.065
973.174
973.284
973.394
973.505
973.614
973.724
973.833
973.942
974.05
974.158
974.265
974.371
974.477
974.583
974.688
974.795
974.902
975.01
975.119
975.231
975.344
975.459
975.577
975.699
975.824
975.953
976.087
976.225
976.367
976.515
976.668
976.826
976.99
977.159
977.334
977.514
977.699
977.89
978.085
978.284
978.488
978.696
978.907
979.121
979.338
979.558
979.779
980.001
980.224
980.447
980.67
980.893
981.115
981.334
981.552
981.766
981.979
982.187
982.392
982.592
982.787
982.977
983.162
983.341
983.513
983.678
983.836
983.986
984.129
984.262
984.386
984.501
984.606
984.699
984.783
984.854
984.914
984.962
984.998
985.021
985.031
985.027
985.011
984.982
984.939
984.883
984.815
984.733
984.641
984.535
984.419
984.291
984.154
984.007
983.853
983.69
983.522
983.348
983.171
982.989
982.807
982.624
982.442
982.262
982.085
981.913
981.748
981.589
981.44
981.299
981.169
981.05
980.944
980.852
980.773
980.709
980.659
980.626
980.608
980.605
980.619
980.647
980.691
980.75
980.823
980.908
981.007
981.117
981.238
981.367
981.505
981.649
981.799
981.952
982.107
982.263
982.418
982.57
982.718
982.859
982.993
983.116
983.229
983.329
983.412
983.481
983.533
983.559
983.563
983.555
983.514
983.423
983.331
983.238
983.031
982.78
982.664
982.418
981.902
981.67
981.594
981.051
980.566
980.577
980.552
980.316
1017.81
1017.62
1017.51
1017.33
1016.96
1016.83
1016.44
1016.01
1015.82
1015.54
1015.16
1014.87
1014.64
1014.36
1014.07
1013.82
1013.59
1013.34
1013.1
1012.86
1012.62
1012.38
1012.14
1011.89
1011.65
1011.39
1011.13
1010.86
1010.59
1010.3
1010.01
1009.71
1009.39
1009.06
1008.72
1008.37
1008
1007.61
1007.21
1006.79
1006.36
1005.91
1005.44
1004.95
1004.45
1003.92
1003.38
1002.81
1002.23
1001.63
1001.01
1000.36
999.705
999.027
998.332
997.62
996.892
996.15
995.395
994.628
993.85
993.064
992.271
991.473
990.672
989.871
989.072
988.277
987.487
986.706
985.936
985.178
984.435
983.709
983.001
982.313
981.647
981.002
980.381
979.784
979.212
978.665
978.143
977.646
977.175
976.729
976.307
975.909
975.534
975.182
974.852
974.542
974.253
973.983
973.732
973.499
973.282
973.081
972.895
972.724
972.566
972.423
972.292
972.173
972.066
971.971
971.886
971.813
971.751
971.699
971.657
971.626
971.604
971.593
971.592
971.6
971.617
971.643
971.678
971.721
971.772
971.831
971.896
971.968
972.046
972.13
972.219
972.312
972.409
972.51
972.614
972.721
972.83
972.94
973.051
973.164
973.277
973.391
973.504
973.617
973.729
973.842
973.954
974.065
974.176
974.286
974.395
974.505
974.614
974.724
974.834
974.946
975.058
975.172
975.288
975.406
975.527
975.651
975.778
975.909
976.045
976.185
976.329
976.479
976.634
976.794
976.96
977.131
977.308
977.49
977.677
977.869
978.065
978.267
978.473
978.682
978.895
979.112
979.33
979.551
979.774
979.998
980.223
980.448
980.673
980.897
981.12
981.341
981.559
981.775
981.989
982.199
982.404
982.606
982.802
982.993
983.179
983.359
983.533
983.699
983.858
984.01
984.153
984.288
984.413
984.53
984.636
984.731
984.815
984.888
984.95
984.998
985.035
985.059
985.069
985.066
985.05
985.02
984.977
984.92
984.85
984.766
984.671
984.562
984.443
984.312
984.171
984.019
983.861
983.693
983.52
983.341
983.157
982.97
982.782
982.593
982.405
982.219
982.037
981.86
981.689
981.525
981.37
981.224
981.09
980.967
980.857
980.761
980.679
980.612
980.561
980.525
980.506
980.502
980.515
980.544
980.588
980.648
980.722
980.81
980.911
981.024
981.148
981.281
981.423
981.572
981.726
981.884
982.045
982.207
982.368
982.527
982.681
982.83
982.971
983.102
983.223
983.332
983.426
983.503
983.564
983.609
983.626
983.62
983.608
983.557
983.453
983.366
983.276
983.054
982.831
982.745
982.487
982.082
981.946
981.801
981.453
981.323
981.302
981.278
1017.29
1017.33
1017.25
1016.92
1016.82
1016.65
1016.25
1016.03
1015.8
1015.47
1015.2
1014.97
1014.7
1014.43
1014.19
1013.96
1013.71
1013.47
1013.24
1013.01
1012.77
1012.53
1012.3
1012.06
1011.81
1011.56
1011.3
1011.03
1010.75
1010.47
1010.18
1009.87
1009.56
1009.23
1008.88
1008.53
1008.16
1007.77
1007.37
1006.95
1006.51
1006.06
1005.58
1005.09
1004.58
1004.05
1003.49
1002.92
1002.33
1001.72
1001.08
1000.43
999.756
999.065
998.355
997.628
996.884
996.125
995.352
994.567
993.771
992.966
992.154
991.338
990.519
989.701
988.885
988.073
987.27
986.475
985.693
984.925
984.174
983.44
982.727
982.035
981.367
980.722
980.102
979.508
978.94
978.398
977.883
977.394
976.93
976.493
976.08
975.692
975.327
974.984
974.663
974.363
974.083
973.822
973.579
973.353
973.142
972.947
972.767
972.6
972.446
972.305
972.177
972.059
971.953
971.857
971.772
971.697
971.633
971.579
971.534
971.5
971.475
971.46
971.454
971.458
971.472
971.494
971.525
971.565
971.612
971.668
971.731
971.801
971.877
971.96
972.047
972.14
972.238
972.339
972.445
972.553
972.664
972.776
972.891
973.007
973.124
973.241
973.359
973.477
973.594
973.712
973.829
973.946
974.062
974.177
974.292
974.407
974.521
974.636
974.751
974.867
974.984
975.102
975.222
975.344
975.469
975.597
975.727
975.862
976.001
976.144
976.292
976.445
976.602
976.765
976.933
977.107
977.286
977.47
977.66
977.854
978.053
978.257
978.464
978.676
978.891
979.109
979.33
979.553
979.778
980.004
980.23
980.457
980.683
980.908
981.133
981.355
981.575
981.792
982.007
982.217
982.424
982.626
982.824
983.016
983.203
983.383
983.558
983.725
983.885
984.037
984.182
984.317
984.444
984.561
984.669
984.765
984.85
984.924
984.987
985.036
985.073
985.097
985.108
985.105
985.088
985.058
985.013
984.955
984.883
984.798
984.699
984.588
984.465
984.33
984.185
984.029
983.865
983.692
983.514
983.328
983.139
982.946
982.752
982.557
982.363
982.171
981.983
981.799
981.623
981.453
981.293
981.142
981.003
980.876
980.762
980.662
980.577
980.507
980.453
980.416
980.395
980.39
980.403
980.432
980.477
980.537
980.614
980.703
980.807
980.923
981.051
981.189
981.335
981.489
981.649
981.813
981.98
982.148
982.316
982.482
982.644
982.801
982.95
983.091
983.221
983.339
983.445
983.535
983.606
983.662
983.704
983.712
983.701
983.69
983.637
983.525
983.452
983.377
983.16
982.967
982.913
982.712
982.406
982.315
982.273
982.096
982.02
982.147
1017
1017
1016.91
1016.78
1016.65
1016.36
1016.19
1016.02
1015.7
1015.46
1015.26
1015.01
1014.74
1014.52
1014.3
1014.06
1013.82
1013.61
1013.38
1013.15
1012.92
1012.69
1012.46
1012.22
1011.97
1011.72
1011.47
1011.2
1010.93
1010.65
1010.35
1010.05
1009.73
1009.41
1009.06
1008.71
1008.33
1007.95
1007.54
1007.12
1006.68
1006.22
1005.74
1005.24
1004.72
1004.19
1003.63
1003.04
1002.44
1001.82
1001.17
1000.51
999.819
999.111
998.385
997.641
996.878
996.1
995.307
994.501
993.684
992.858
992.025
991.188
990.349
989.511
988.675
987.846
987.025
986.215
985.419
984.639
983.878
983.137
982.417
981.721
981.051
980.406
979.788
979.196
978.633
978.098
977.589
977.109
976.655
976.227
975.824
975.447
975.092
974.76
974.45
974.16
973.89
973.639
973.404
973.186
972.983
972.794
972.619
972.457
972.308
972.17
972.043
971.927
971.821
971.724
971.638
971.562
971.495
971.437
971.389
971.35
971.321
971.302
971.292
971.29
971.298
971.316
971.342
971.377
971.42
971.472
971.531
971.598
971.672
971.752
971.839
971.931
972.028
972.13
972.236
972.346
972.459
972.574
972.692
972.812
972.934
973.057
973.18
973.303
973.427
973.551
973.675
973.799
973.922
974.044
974.166
974.288
974.41
974.531
974.654
974.776
974.899
975.023
975.149
975.277
975.407
975.539
975.676
975.815
975.958
976.106
976.258
976.414
976.576
976.742
976.914
977.091
977.272
977.46
977.652
977.849
978.051
978.256
978.467
978.681
978.898
979.118
979.341
979.565
979.792
980.019
980.247
980.475
980.702
980.929
981.155
981.378
981.599
981.817
982.033
982.244
982.451
982.654
982.853
983.045
983.233
983.414
983.588
983.756
983.917
984.07
984.214
984.351
984.478
984.596
984.703
984.8
984.886
984.961
985.024
985.074
985.111
985.135
985.146
985.142
985.125
985.094
985.048
984.988
984.914
984.826
984.725
984.61
984.484
984.345
984.195
984.035
983.865
983.687
983.503
983.312
983.117
982.918
982.717
982.516
982.316
982.117
981.923
981.734
981.551
981.376
981.21
981.054
980.91
980.778
980.661
980.557
980.468
980.396
980.339
980.3
980.277
980.272
980.284
980.313
980.359
980.421
980.499
980.591
980.698
980.818
980.949
981.091
981.243
981.402
981.568
981.738
981.912
982.088
982.263
982.437
982.608
982.773
982.932
983.082
983.224
983.352
983.468
983.573
983.659
983.726
983.782
983.821
983.826
983.815
983.812
983.759
983.657
983.606
983.539
983.359
983.229
983.18
983.033
982.883
982.84
982.807
982.812
982.877
1016.78
1016.72
1016.65
1016.62
1016.44
1016.25
1016.12
1015.89
1015.67
1015.49
1015.26
1015.02
1014.82
1014.6
1014.37
1014.15
1013.94
1013.73
1013.5
1013.28
1013.07
1012.84
1012.61
1012.38
1012.14
1011.89
1011.64
1011.38
1011.11
1010.83
1010.54
1010.24
1009.92
1009.59
1009.25
1008.9
1008.52
1008.13
1007.73
1007.3
1006.86
1006.4
1005.91
1005.41
1004.89
1004.34
1003.77
1003.18
1002.57
1001.93
1001.27
1000.59
999.89
999.166
998.422
997.658
996.875
996.076
995.26
994.432
993.591
992.741
991.885
991.023
990.161
989.3
988.443
987.593
986.753
985.926
985.115
984.322
983.549
982.798
982.072
981.372
980.699
980.054
979.438
978.85
978.292
977.763
977.264
976.792
976.349
975.932
975.541
975.175
974.833
974.513
974.214
973.936
973.677
973.435
973.21
973.001
972.805
972.624
972.455
972.299
972.153
972.018
971.893
971.778
971.672
971.576
971.488
971.409
971.339
971.278
971.225
971.182
971.148
971.122
971.106
971.099
971.101
971.112
971.133
971.162
971.2
971.246
971.301
971.363
971.433
971.511
971.595
971.685
971.781
971.883
971.989
972.1
972.216
972.334
972.456
972.581
972.708
972.836
972.966
973.096
973.228
973.36
973.492
973.624
973.756
973.887
974.018
974.149
974.279
974.41
974.541
974.672
974.803
974.935
975.069
975.204
975.342
975.481
975.624
975.77
975.919
976.072
976.229
976.391
976.557
976.728
976.904
977.084
977.27
977.461
977.656
977.856
978.06
978.269
978.482
978.698
978.917
979.139
979.364
979.59
979.818
980.046
980.275
980.505
980.733
980.961
981.187
981.411
981.632
981.851
982.066
982.278
982.486
982.689
982.888
983.081
983.268
983.449
983.624
983.791
983.952
984.105
984.25
984.386
984.513
984.631
984.739
984.836
984.922
984.997
985.059
985.109
985.146
985.17
985.18
985.176
985.158
985.125
985.079
985.017
984.941
984.85
984.746
984.628
984.498
984.355
984.201
984.036
983.861
983.678
983.488
983.291
983.09
982.885
982.678
982.471
982.265
982.06
981.859
981.664
981.475
981.294
981.123
980.962
980.813
980.677
980.554
980.446
980.355
980.279
980.22
980.179
980.155
980.148
980.16
980.189
980.236
980.3
980.379
980.474
980.584
980.707
980.843
980.99
981.147
981.312
981.484
981.661
981.843
982.026
982.209
982.392
982.571
982.746
982.915
983.076
983.228
983.37
983.499
983.614
983.719
983.805
983.87
983.928
983.971
983.974
983.972
983.981
983.936
983.854
983.829
983.785
983.654
983.577
983.566
983.494
983.424
983.448
983.504
983.552
1016.55
1016.54
1016.49
1016.4
1016.28
1016.18
1016
1015.81
1015.67
1015.47
1015.25
1015.06
1014.87
1014.65
1014.45
1014.25
1014.05
1013.83
1013.63
1013.42
1013.2
1012.98
1012.76
1012.54
1012.3
1012.06
1011.81
1011.56
1011.29
1011.01
1010.73
1010.43
1010.12
1009.79
1009.45
1009.09
1008.72
1008.33
1007.93
1007.5
1007.05
1006.59
1006.1
1005.59
1005.06
1004.51
1003.93
1003.33
1002.71
1002.06
1001.39
1000.69
999.971
999.229
998.465
997.68
996.875
996.052
995.212
994.358
993.491
992.615
991.731
990.843
989.955
989.069
988.188
987.315
986.454
985.607
984.779
983.97
983.185
982.424
981.691
980.986
980.311
979.666
979.051
978.469
977.917
977.396
976.906
976.445
976.013
975.609
975.231
974.879
974.55
974.243
973.957
973.692
973.445
973.214
973
972.8
972.613
972.439
972.277
972.126
971.985
971.853
971.73
971.617
971.511
971.413
971.323
971.242
971.168
971.103
971.045
970.997
970.956
970.924
970.901
970.887
970.883
970.887
970.9
970.923
970.954
970.994
971.043
971.1
971.165
971.238
971.319
971.407
971.501
971.602
971.708
971.821
971.938
972.059
972.185
972.314
972.446
972.581
972.718
972.857
972.997
973.138
973.279
973.421
973.563
973.706
973.848
973.99
974.131
974.273
974.414
974.556
974.698
974.84
974.984
975.129
975.275
975.424
975.574
975.728
975.885
976.045
976.209
976.377
976.549
976.725
976.906
977.091
977.281
977.476
977.675
977.878
978.085
978.297