# vtk DataFile Version 2.0
LBE mesh
ASCII
DATASET STRUCTURED_POINTS
DIMENSIONS 300 100 1
ASPECT_RATIO 1 1 1
ORIGIN 0 0 0
POINT_DATA 30000
SCALARS rho double 1
LOOKUP_TABLE default
1047.97
1016.41
1015.71
1022.15
1020.31
1016.42
1016.22
1016.72
1015.94
1015.14
1014.97
1014.8
1014.42
1014.1
1013.89
1013.67
1013.42
1013.19
1012.98
1012.77
1012.55
1012.34
1012.13
1011.91
1011.7
1011.48
1011.25
1011.03
1010.79
1010.55
1010.31
1010.05
1009.79
1009.52
1009.24
1008.94
1008.64
1008.32
1007.99
1007.65
1007.29
1006.91
1006.52
1006.12
1005.69
1005.25
1004.79
1004.31
1003.82
1003.3
1002.77
1002.21
1001.64
1001.05
1000.44
999.812
999.167
998.506
997.83
997.139
996.435
995.72
994.994
994.26
993.519
992.772
992.023
991.271
990.521
989.773
989.029
988.291
987.562
986.842
986.134
985.439
984.758
984.093
983.445
982.815
982.204
981.613
981.041
980.49
979.959
979.45
978.961
978.493
978.046
977.619
977.212
976.825
976.457
976.108
975.777
975.465
975.17
974.892
974.63
974.384
974.153
973.938
973.736
973.548
973.374
973.213
973.064
972.927
972.802
972.688
972.585
972.492
972.408
972.335
972.27
972.213
972.165
972.125
972.091
972.065
972.046
972.032
972.025
972.023
972.025
972.033
972.044
972.06
972.079
972.102
972.127
972.155
972.185
972.217
972.251
972.286
972.322
972.36
972.398
972.436
972.475
972.514
972.553
972.591
972.63
972.668
972.705
972.742
972.778
972.813
972.847
972.88
972.912
972.943
972.973
973.001
973.028
973.054
973.078
973.1
973.121
973.14
973.158
973.175
973.189
973.203
973.215
973.226
973.236
973.245
973.255
973.264
973.274
973.284
973.296
973.31
973.327
973.347
973.371
973.399
973.433
973.473
973.52
973.574
973.637
973.708
973.788
973.878
973.978
974.088
974.209
974.341
974.483
974.636
974.8
974.974
975.158
975.352
975.555
975.767
975.986
976.212
976.445
976.683
976.926
977.174
977.423
977.675
977.929
978.183
978.436
978.688
978.937
979.184
979.427
979.666
979.9
980.129
980.351
980.566
980.775
980.976
981.169
981.354
981.53
981.698
981.856
982.005
982.146
982.277
982.398
982.51
982.613
982.706
982.79
982.864
982.928
982.983
983.029
983.065
983.092
983.11
983.119
983.119
983.11
983.093
983.067
983.032
982.989
982.939
982.88
982.814
982.741
982.661
982.573
982.479
982.38
982.274
982.163
982.047
981.927
981.802
981.674
981.542
981.408
981.272
981.135
980.996
980.857
980.717
980.579
980.44
980.303
980.167
980.033
979.899
979.768
979.636
979.503
979.371
979.238
979.097
978.95
978.802
978.636
978.434
978.234
978.032
977.714
977.319
977.068
976.669
975.676
975.002
975.132
973.133
969.283
971.22
971.929
948.554
1030.93
1027.41
1023.34
1018.16
1018.34
1018.49
1017.31
1016.15
1015.91
1015.65
1015.17
1014.76
1014.52
1014.26
1013.97
1013.71
1013.48
1013.25
1013.02
1012.8
1012.59
1012.37
1012.15
1011.93
1011.71
1011.49
1011.26
1011.03
1010.79
1010.55
1010.3
1010.04
1009.78
1009.5
1009.22
1008.92
1008.62
1008.3
1007.96
1007.62
1007.26
1006.88
1006.49
1006.08
1005.65
1005.21
1004.75
1004.27
1003.77
1003.26
1002.72
1002.16
1001.59
1001
1000.39
999.762
999.117
998.457
997.781
997.091
996.389
995.674
994.951
994.218
993.479
992.735
991.988
991.239
990.491
989.746
989.005
988.27
987.544
986.828
986.123
985.431
984.754
984.092
983.448
982.821
982.213
981.624
981.055
980.507
979.979
979.471
978.985
978.519
978.074
977.648
977.243
976.858
976.491
976.144
975.814
975.503
975.209
974.931
974.67
974.425
974.195
973.979
973.779
973.591
973.417
973.257
973.108
972.972
972.847
972.733
972.63
972.536
972.453
972.38
972.315
972.259
972.211
972.171
972.138
972.112
972.092
972.079
972.072
972.069
972.072
972.08
972.092
972.108
972.127
972.15
972.175
972.203
972.233
972.266
972.3
972.335
972.371
972.408
972.446
972.484
972.523
972.561
972.6
972.639
972.677
972.714
972.751
972.788
972.823
972.858
972.891
972.924
972.955
972.985
973.014
973.042
973.068
973.093
973.116
973.138
973.159
973.177
973.194
973.21
973.224
973.238
973.249
973.26
973.269
973.279
973.287
973.296
973.305
973.315
973.327
973.341
973.357
973.376
973.4
973.427
973.461
973.5
973.546
973.599
973.661
973.731
973.81
973.898
973.996
974.105
974.225
974.355
974.495
974.647
974.809
974.981
975.164
975.356
975.557
975.767
975.984
976.209
976.44
976.677
976.919
977.164
977.413
977.664
977.916
978.168
978.421
978.672
978.92
979.167
979.409
979.647
979.881
980.109
980.331
980.546
980.754
980.955
981.148
981.333
981.509
981.677
981.836
981.986
982.127
982.258
982.38
982.493
982.596
982.69
982.774
982.849
982.914
982.97
983.017
983.053
983.082
983.1
983.11
983.111
983.103
983.087
983.061
983.028
982.986
982.936
982.878
982.813
982.741
982.661
982.574
982.481
982.381
982.276
982.165
982.05
981.929
981.805
981.677
981.545
981.411
981.274
981.136
980.997
980.857
980.716
980.576
980.436
980.297
980.159
980.022
979.885
979.749
979.614
979.478
979.341
979.2
979.057
978.904
978.739
978.566
978.378
978.148
977.886
977.627
977.284
976.789
976.324
975.896
974.922
973.637
973.094
971.891
967.69
963.83
961.782
1022.86
1027.66
1023.01
1018.72
1018.97
1018.68
1017.3
1016.35
1016.15
1015.79
1015.26
1014.88
1014.62
1014.34
1014.04
1013.78
1013.55
1013.31
1013.07
1012.85
1012.62
1012.4
1012.18
1011.96
1011.73
1011.51
1011.28
1011.04
1010.8
1010.56
1010.31
1010.05
1009.78
1009.5
1009.21
1008.92
1008.61
1008.29
1007.95
1007.6
1007.24
1006.86
1006.47
1006.06
1005.63
1005.18
1004.72
1004.24
1003.74
1003.22
1002.68
1002.13
1001.55
1000.96
1000.35
999.72
999.075
998.413
997.737
997.046
996.343
995.629
994.905
994.172
993.433
992.689
991.942
991.194
990.447
989.703
988.964
988.231
987.506
986.792
986.089
985.399
984.724
984.065
983.423
982.799
982.194
981.608
981.042
980.496
979.971
979.466
978.983
978.519
978.077
977.654
977.251
976.868
976.504
976.159
975.831
975.522
975.229
974.954
974.694
974.45
974.222
974.008
973.808
973.622
973.45
973.29
973.143
973.007
972.883
972.77
972.668
972.576
972.493
972.421
972.357
972.302
972.254
972.215
972.182
972.157
972.139
972.126
972.119
972.118
972.122
972.13
972.142
972.159
972.179
972.202
972.228
972.257
972.287
972.32
972.354
972.39
972.426
972.464
972.502
972.541
972.579
972.618
972.657
972.695
972.733
972.771
972.807
972.843
972.879
972.913
972.946
972.978
973.009
973.038
973.067
973.094
973.119
973.143
973.166
973.187
973.206
973.224
973.241
973.256
973.269
973.281
973.292
973.302
973.31
973.319
973.326
973.334
973.342
973.351
973.361
973.374
973.388
973.406
973.428
973.454
973.486
973.523
973.568
973.619
973.678
973.746
973.823
973.91
974.006
974.113
974.231
974.359
974.498
974.648
974.808
974.979
975.16
975.351
975.551
975.759
975.975
976.199
976.43
976.666
976.907
977.152
977.4
977.65
977.902
978.154
978.406
978.657
978.906
979.152
979.394
979.632
979.866
980.094
980.316
980.531
980.74
980.941
981.134
981.319
981.496
981.665
981.824
981.974
982.115
982.247
982.37
982.483
982.587
982.682
982.767
982.842
982.908
982.965
983.012
983.05
983.079
983.098
983.109
983.111
983.103
983.088
983.063
983.03
982.989
982.94
982.883
982.818
982.746
982.666
982.579
982.487
982.387
982.282
982.171
982.055
981.935
981.81
981.681
981.549
981.414
981.277
981.138
980.997
980.856
980.714
980.572
980.43
980.289
980.149
980.009
979.87
979.732
979.593
979.455
979.314
979.169
979.022
978.869
978.697
978.512
978.329
978.107
977.81
977.533
977.271
976.75
976.097
975.846
975.242
973.319
972.474
973.278
968.924
963.251
967.166
1022.59
1021.33
1020.8
1021.98
1019.48
1017.39
1017.34
1017.26
1016.35
1015.64
1015.41
1015.14
1014.73
1014.39
1014.14
1013.89
1013.62
1013.37
1013.14
1012.91
1012.68
1012.45
1012.23
1012
1011.77
1011.54
1011.31
1011.07
1010.83
1010.58
1010.33
1010.07
1009.8
1009.52
1009.23
1008.93
1008.62
1008.29
1007.95
1007.6
1007.24
1006.86
1006.46
1006.05
1005.62
1005.17
1004.71
1004.23
1003.72
1003.2
1002.66
1002.1
1001.53
1000.93
1000.32
999.684
999.036
998.371
997.692
996.999
996.293
995.576
994.849
994.114
993.373
992.627
991.878
991.129
990.381
989.635
988.895
988.162
987.438
986.724
986.022
985.333
984.66
984.003
983.363
982.741
982.139
981.555
980.992
980.45
979.928
979.428
978.948
978.488
978.049
977.63
977.231
976.851
976.491
976.148
975.824
975.518
975.229
974.956
974.699
974.458
974.232
974.021
973.823
973.64
973.469
973.311
973.166
973.032
972.91
972.799
972.698
972.608
972.527
972.455
972.393
972.339
972.293
972.255
972.224
972.2
972.182
972.171
972.166
972.165
972.17
972.179
972.193
972.211
972.232
972.256
972.283
972.312
972.344
972.377
972.412
972.449
972.486
972.524
972.563
972.602
972.641
972.681
972.72
972.759
972.797
972.834
972.871
972.907
972.942
972.976
973.009
973.041
973.071
973.1
973.128
973.154
973.179
973.202
973.224
973.245
973.263
973.28
973.295
973.309
973.321
973.332
973.342
973.35
973.357
973.364
973.37
973.376
973.382
973.389
973.398
973.408
973.42
973.436
973.455
973.479
973.508
973.543
973.584
973.633
973.69
973.755
973.83
973.914
974.008
974.113
974.228
974.354
974.491
974.639
974.798
974.968
975.148
975.337
975.536
975.744
975.96
976.184
976.414
976.65
976.891
977.136
977.384
977.635
977.887
978.14
978.392
978.643
978.892
979.139
979.382
979.621
979.855
980.083
980.306
980.522
980.731
980.933
981.127
981.313
981.49
981.659
981.819
981.97
982.112
982.245
982.368
982.482
982.587
982.682
982.767
982.843
982.911
982.967
983.016
983.054
983.084
983.104
983.115
983.117
983.111
983.096
983.072
983.039
982.998
982.949
982.893
982.828
982.756
982.676
982.59
982.497
982.397
982.291
982.18
982.064
981.942
981.817
981.687
981.554
981.418
981.28
981.139
980.997
980.854
980.711
980.567
980.424
980.281
980.138
979.997
979.856
979.716
979.575
979.433
979.292
979.147
978.994
978.836
978.675
978.49
978.278
978.073
977.839
977.491
977.132
976.861
976.328
975.455
975.023
974.617
972.691
970.978
970.949
969.857
967.809
1022.58
1020.41
1020.35
1020.24
1018.77
1018.35
1017.79
1016.94
1016.32
1016.03
1015.64
1015.19
1014.83
1014.56
1014.27
1013.98
1013.72
1013.47
1013.23
1012.99
1012.75
1012.52
1012.29
1012.06
1011.83
1011.6
1011.36
1011.12
1010.88
1010.63
1010.37
1010.11
1009.83
1009.55
1009.26
1008.96
1008.64
1008.32
1007.98
1007.63
1007.26
1006.88
1006.48
1006.06
1005.63
1005.18
1004.71
1004.23
1003.72
1003.19
1002.65
1002.09
1001.51
1000.9
1000.29
999.65
998.996
998.327
997.642
996.944
996.233
995.511
994.779
994.039
993.293
992.542
991.789
991.036
990.284
989.536
988.793
988.058
987.332
986.617
985.915
985.226
984.554
983.898
983.26
982.641
982.041
981.461
980.902
980.363
979.846
979.35
978.874
978.42
977.985
977.571
977.177
976.802
976.447
976.109
975.79
975.488
975.203
974.935
974.682
974.445
974.223
974.015
973.821
973.641
973.473
973.319
973.176
973.045
972.925
972.816
972.718
972.63
972.551
972.482
972.421
972.369
972.325
972.288
972.259
972.237
972.221
972.211
972.207
972.208
972.214
972.225
972.24
972.26
972.282
972.307
972.335
972.366
972.399
972.434
972.47
972.508
972.546
972.585
972.625
972.665
972.705
972.746
972.785
972.825
972.864
972.902
972.939
972.975
973.011
973.045
973.078
973.11
973.14
973.168
973.196
973.222
973.246
973.268
973.289
973.309
973.326
973.342
973.356
973.369
973.38
973.389
973.397
973.403
973.409
973.413
973.417
973.421
973.424
973.429
973.434
973.442
973.451
973.463
973.48
973.5
973.526
973.557
973.596
973.641
973.695
973.757
973.829
973.91
974.001
974.104
974.217
974.341
974.477
974.623
974.781
974.949
975.128
975.317
975.516
975.724
975.94
976.164
976.394
976.63
976.872
977.118
977.367
977.619
977.872
978.125
978.379
978.631
978.881
979.129
979.373
979.613
979.848
980.077
980.301
980.518
980.728
980.93
981.125
981.312
981.49
981.66
981.821
981.973
982.115
982.249
982.373
982.487
982.593
982.689
982.775
982.852
982.919
982.978
983.026
983.065
983.095
983.116
983.128
983.131
983.125
983.11
983.086
983.054
983.014
982.965
982.908
982.843
982.771
982.691
982.604
982.511
982.411
982.304
982.192
982.075
981.953
981.826
981.695
981.561
981.424
981.284
981.142
980.998
980.854
980.709
980.564
980.418
980.274
980.13
979.987
979.844
979.703
979.562
979.419
979.275
979.132
978.982
978.821
978.659
978.49
978.282
978.05
977.844
977.571
977.145
976.801
976.541
975.771
974.841
974.751
973.926
971.625
971.2
971.054
968.964
1020.5
1020.53
1020.11
1018.64
1018.78
1018.63
1017.46
1016.83
1016.66
1016.24
1015.65
1015.29
1015.04
1014.72
1014.38
1014.1
1013.85
1013.59
1013.34
1013.1
1012.86
1012.62
1012.39
1012.15
1011.92
1011.68
1011.44
1011.2
1010.95
1010.7
1010.44
1010.17
1009.9
1009.61
1009.32
1009.01
1008.7
1008.37
1008.03
1007.67
1007.3
1006.92
1006.51
1006.1
1005.66
1005.2
1004.73
1004.24
1003.73
1003.2
1002.65
1002.08
1001.49
1000.89
1000.26
999.616
998.956
998.279
997.586
996.88
996.161
995.431
994.691
993.943
993.19
992.432
991.672
990.912
990.155
989.401
988.654
987.914
987.185
986.468
985.764
985.075
984.402
983.747
983.111
982.494
981.897
981.32
980.765
980.231
979.719
979.229
978.759
978.31
977.882
977.474
977.087
976.719
976.369
976.038
975.725
975.43
975.151
974.888
974.641
974.409
974.192
973.989
973.799
973.623
973.46
973.309
973.171
973.043
972.927
972.821
972.726
972.64
972.564
972.497
972.439
972.389
972.347
972.313
972.286
972.265
972.251
972.243
972.241
972.244
972.251
972.264
972.281
972.301
972.325
972.352
972.382
972.414
972.448
972.484
972.522
972.561
972.601
972.642
972.683
972.725
972.766
972.808
972.849
972.889
972.929
972.969
973.007
973.044
973.08
973.115
973.148
973.18
973.21
973.239
973.266
973.292
973.316
973.338
973.358
973.376
973.393
973.408
973.421
973.432
973.441
973.448
973.454
973.459
973.462
973.464
973.465
973.466
973.467
973.468
973.47
973.474
973.48
973.488
973.501
973.517
973.539
973.567
973.602
973.643
973.694
973.752
973.821
973.899
973.988
974.088
974.199
974.321
974.455
974.6
974.757
974.925
975.103
975.292
975.491
975.699
975.916
976.141
976.372
976.609
976.852
977.099
977.35
977.603
977.858
978.113
978.368
978.622
978.873
979.122
979.368
979.609
979.845
980.076
980.301
980.519
980.731
980.934
981.13
981.317
981.497
981.667
981.829
981.982
982.125
982.259
982.384
982.5
982.606
982.702
982.789
982.867
982.935
982.994
983.043
983.083
983.114
983.135
983.148
983.151
983.145
983.13
983.107
983.075
983.034
982.985
982.928
982.863
982.79
982.71
982.623
982.528
982.428
982.32
982.208
982.089
981.966
981.838
981.706
981.57
981.431
981.29
981.146
981.001
980.855
980.708
980.562
980.415
980.269
980.124
979.981
979.837
979.695
979.554
979.413
979.27
979.125
978.981
978.83
978.66
978.49
978.321
978.097
977.832
977.621
977.35
976.847
976.434
976.229
975.447
974.351
974.091
973.558
972.068
970.994
970.609
1019.45
1019.85
1019.37
1018.73
1018.55
1017.81
1017.44
1017.19
1016.63
1016.1
1015.82
1015.53
1015.14
1014.8
1014.53
1014.27
1013.98
1013.72
1013.47
1013.23
1012.98
1012.74
1012.51
1012.27
1012.03
1011.79
1011.55
1011.3
1011.05
1010.8
1010.53
1010.26
1009.99
1009.7
1009.4
1009.1
1008.78
1008.44
1008.1
1007.74
1007.37
1006.98
1006.57
1006.15
1005.71
1005.25
1004.77
1004.27
1003.75
1003.22
1002.66
1002.08
1001.49
1000.87
1000.24
999.584
998.913
998.226
997.523
996.806
996.076
995.336
994.585
993.827
993.063
992.295
991.526
990.757
989.991
989.23
988.476
987.731
986.997
986.275
985.568
984.878
984.204
983.549
982.914
982.299
981.705
981.133
980.583
980.054
979.548
979.064
978.601
978.16
977.739
977.339
976.96
976.599
976.258
975.935
975.629
975.341
975.07
974.814
974.574
974.349
974.138
973.941
973.758
973.587
973.429
973.283
973.149
973.026
972.914
972.812
972.72
972.638
972.565
972.502
972.446
972.399
972.359
972.327
972.302
972.283
972.271
972.265
972.264
972.269
972.278
972.292
972.31
972.332
972.357
972.386
972.417
972.451
972.487
972.525
972.564
972.605
972.647
972.689
972.732
972.775
972.818
972.862
972.904
972.947
972.988
973.029
973.069
973.107
973.145
973.18
973.215
973.247
973.279
973.308
973.336
973.361
973.385
973.407
973.427
973.444
973.46
973.474
973.486
973.495
973.503
973.508
973.512
973.514
973.515
973.514
973.512
973.51
973.507
973.505
973.503
973.503
973.506
973.51
973.519
973.531
973.549
973.573
973.603
973.641
973.688
973.743
973.808
973.884
973.97
974.067
974.176
974.297
974.429
974.574
974.73
974.897
975.076
975.265
975.465
975.673
975.891
976.117
976.35
976.589
976.833
977.082
977.335
977.59
977.846
978.103
978.36
978.616
978.869
979.12
979.367
979.61
979.848
980.08
980.307
980.526
980.738
980.943
981.14
981.328
981.509
981.68
981.843
981.996
982.141
982.276
982.401
982.518
982.624
982.722
982.81
982.888
982.957
983.016
983.066
983.107
983.138
983.16
983.173
983.176
983.171
983.156
983.133
983.1
983.06
983.011
982.954
982.888
982.815
982.734
982.646
982.551
982.449
982.34
982.227
982.107
981.982
981.853
981.719
981.582
981.442
981.299
981.154
981.007
980.86
980.712
980.564
980.416
980.27
980.124
979.98
979.837
979.696
979.555
979.416
979.278
979.135
978.991
978.849
978.695
978.519
978.349
978.179
977.932
977.654
977.456
977.141
976.583
976.237
975.975
975.061
974.249
973.948
973.024
972.013
971.486
1019.18
1018.88
1018.65
1018.78
1018.15
1017.57
1017.47
1017.04
1016.53
1016.24
1015.95
1015.56
1015.22
1014.96
1014.68
1014.38
1014.11
1013.86
1013.61
1013.36
1013.12
1012.88
1012.64
1012.4
1012.16
1011.92
1011.68
1011.43
1011.18
1010.92
1010.65
1010.38
1010.1
1009.81
1009.51
1009.2
1008.88
1008.54
1008.19
1007.83
1007.45
1007.06
1006.65
1006.22
1005.77
1005.31
1004.82
1004.32
1003.79
1003.25
1002.68
1002.1
1001.49
1000.86
1000.22
999.552
998.869
998.169
997.453
996.723
995.98
995.225
994.461
993.69
992.912
992.132
991.351
990.571
989.794
989.023
988.26
987.507
986.767
986.04
985.329
984.636
983.961
983.305
982.671
982.058
981.468
980.9
980.355
979.833
979.333
978.856
978.402
977.969
977.557
977.167
976.796
976.445
976.113
975.799
975.503
975.224
974.962
974.714
974.483
974.266
974.062
973.873
973.696
973.532
973.381
973.241
973.112
972.994
972.886
972.789
972.701
972.623
972.554
972.493
972.441
972.396
972.359
972.329
972.306
972.289
972.279
972.275
972.276
972.282
972.292
972.308
972.327
972.35
972.377
972.406
972.439
972.474
972.511
972.551
972.591
972.634
972.677
972.721
972.766
972.811
972.857
972.902
972.947
972.991
973.035
973.077
973.119
973.16
973.199
973.236
973.272
973.306
973.339
973.37
973.398
973.425
973.449
973.471
973.491
973.509
973.524
973.537
973.548
973.556
973.562
973.566
973.568
973.568
973.566
973.562
973.557
973.552
973.546
973.54
973.534
973.53
973.528
973.529
973.533
973.542
973.556
973.575
973.602
973.636
973.679
973.731
973.793
973.866
973.949
974.044
974.152
974.271
974.403
974.546
974.702
974.869
975.048
975.238
975.439
975.649
975.868
976.095
976.33
976.571
976.817
977.068
977.323
977.58
977.839
978.098
978.357
978.615
978.87
979.123
979.372
979.616
979.856
980.09
980.317
980.538
980.752
980.957
981.156
981.345
981.527
981.699
981.862
982.017
982.162
982.298
982.424
982.541
982.649
982.747
982.835
982.914
982.984
983.044
983.095
983.135
983.167
983.189
983.203
983.206
983.201
983.187
983.164
983.131
983.091
983.041
982.983
982.917
982.844
982.762
982.673
982.577
982.474
982.364
982.25
982.128
982.003
981.872
981.737
981.598
981.457
981.312
981.166
981.018
980.87
980.721
980.572
980.424
980.277
980.132
979.988
979.846
979.707
979.569
979.431
979.296
979.163
979.023
978.88
978.743
978.593
978.409
978.24
978.08
977.815
977.511
977.331
977.017
976.413
976.044
975.783
975.005
974.18
973.753
973.16
972.08
1018.72
1018.52
1018.4
1018.2
1017.82
1017.67
1017.27
1016.82
1016.61
1016.31
1015.91
1015.6
1015.36
1015.07
1014.76
1014.5
1014.26
1014
1013.75
1013.5
1013.27
1013.03
1012.78
1012.55
1012.31
1012.06
1011.82
1011.57
1011.32
1011.06
1010.79
1010.52
1010.23
1009.94
1009.64
1009.33
1009
1008.66
1008.31
1007.94
1007.56
1007.16
1006.75
1006.31
1005.86
1005.38
1004.89
1004.38
1003.85
1003.29
1002.71
1002.12
1001.5
1000.86
1000.2
999.521
998.823
998.108
997.377
996.631
995.871
995.101
994.32
993.533
992.74
991.944
991.148
990.354
989.564
988.781
988.008
987.246
986.497
985.764
985.048
984.351
983.674
983.018
982.384
981.774
981.187
980.624
980.084
979.569
979.077
978.609
978.163
977.74
977.339
976.958
976.599
976.258
975.937
975.634
975.349
975.08
974.828
974.59
974.368
974.16
973.966
973.784
973.616
973.46
973.315
973.182
973.059
972.947
972.845
972.753
972.67
972.596
972.53
972.473
972.424
972.382
972.348
972.32
972.299
972.284
972.275
972.272
972.274
972.281
972.293
972.309
972.329
972.353
972.38
972.411
972.444
972.48
972.519
972.559
972.601
972.645
972.69
972.735
972.782
972.829
972.877
972.924
972.971
973.018
973.063
973.109
973.153
973.196
973.237
973.277
973.315
973.352
973.387
973.419
973.45
973.477
973.503
973.526
973.546
973.565
973.581
973.593
973.603
973.611
973.616
973.618
973.619
973.617
973.612
973.606
973.599
973.59
973.581
973.571
973.562
973.554
973.549
973.545
973.546
973.55
973.56
973.576
973.599
973.63
973.669
973.718
973.778
973.848
973.93
974.023
974.129
974.247
974.378
974.521
974.677
974.845
975.025
975.215
975.417
975.629
975.85
976.079
976.315
976.558
976.807
977.06
977.317
977.577
977.838
978.099
978.36
978.62
978.878
979.132
979.383
979.629
979.87
980.105
980.334
980.556
980.771
980.978
981.177
981.368
981.55
981.723
981.888
982.043
982.189
982.325
982.452
982.57
982.678
982.777
982.866
982.945
983.016
983.076
983.128
983.169
983.201
983.224
983.237
983.241
983.236
983.222
983.199
983.166
983.125
983.075
983.017
982.951
982.876
982.794
982.704
982.607
982.503
982.393
982.277
982.154
982.027
981.895
981.759
981.619
981.476
981.331
981.184
981.035
980.886
980.736
980.588
980.439
980.293
980.149
980.007
979.867
979.73
979.595
979.463
979.331
979.203
979.077
978.942
978.804
978.677
978.53
978.345
978.185
978.028
977.749
977.458
977.282
976.926
976.387
976.042
975.636
974.943
974.36
973.764
972.871
1018.19
1018.22
1018.13
1017.79
1017.67
1017.49
1017.07
1016.83
1016.58
1016.23
1015.95
1015.71
1015.42
1015.12
1014.88
1014.63
1014.37
1014.12
1013.88
1013.65
1013.41
1013.17
1012.93
1012.7
1012.46
1012.22
1011.97
1011.72
1011.47
1011.21
1010.94
1010.66
1010.38
1010.09
1009.78
1009.47
1009.14
1008.8
1008.44
1008.07
1007.69
1007.28
1006.86
1006.42
1005.96
1005.48
1004.98
1004.45
1003.91
1003.34
1002.76
1002.15
1001.51
1000.86
1000.19
999.491
998.777
998.044
997.295
996.53
995.752
994.963
994.163
993.357
992.545
991.732
990.919
990.108
989.303
988.507
987.721
986.947
986.189
985.448
984.726
984.024
983.345
982.689
982.055
981.448
980.865
980.307
979.774
979.266
978.783
978.324
977.889
977.477
977.087
976.718
976.37
976.042
975.733
975.442
975.169
974.912
974.67
974.444
974.233
974.035
973.851
973.679
973.519
973.371
973.235
973.109
972.993
972.887
972.791
972.705
972.627
972.557
972.496
972.443
972.397
972.357
972.325
972.3
972.281
972.267
972.26
972.257
972.26
972.268
972.28
972.296
972.317
972.341
972.368
972.399
972.433
972.469
972.508
972.548
972.591
972.635
972.681
972.728
972.777
972.825
972.874
972.923
972.973
973.021
973.07
973.118
973.165
973.211
973.255
973.298
973.339
973.379
973.416
973.451
973.484
973.515
973.542
973.567
973.589
973.609
973.626
973.639
973.65
973.657
973.661
973.664
973.663
973.659
973.653
973.645
973.635
973.624
973.612
973.6
973.588
973.577
973.568
973.561
973.558
973.559
973.565
973.578
973.598
973.625
973.662
973.709
973.766
973.834
973.914
974.006
974.111
974.228
974.359
974.503
974.658
974.827
975.008
975.2
975.403
975.616
975.839
976.07
976.309
976.554
976.805
977.061
977.32
977.582
977.845
978.109
978.372
978.633
978.893
979.149
979.401
979.649
979.892
980.128
980.358
980.581
980.797
981.005
981.205
981.396
981.579
981.753
981.918
982.074
982.22
982.357
982.485
982.603
982.712
982.811
982.901
982.981
983.051
983.112
983.164
983.206
983.238
983.261
983.275
983.279
983.275
983.26
983.237
983.205
983.164
983.114
983.056
982.988
982.913
982.83
982.74
982.642
982.537
982.426
982.309
982.185
982.057
981.924
981.787
981.646
981.503
981.356
981.209
981.06
980.911
980.761
980.613
980.465
980.32
980.177
980.038
979.901
979.767
979.637
979.512
979.388
979.264
979.145
979.031
978.903
978.774
978.661
978.522
978.336
978.191
978.048
977.762
977.479
977.308
976.963
976.456
976.098
975.698
975.07
974.436
973.691
1017.89
1017.89
1017.79
1017.64
1017.5
1017.2
1017.01
1016.81
1016.48
1016.22
1016
1015.73
1015.45
1015.21
1014.98
1014.72
1014.48
1014.25
1014.01
1013.78
1013.54
1013.31
1013.08
1012.85
1012.61
1012.37
1012.13
1011.88
1011.63
1011.37
1011.1
1010.83
1010.54
1010.25
1009.94
1009.62
1009.29
1008.95
1008.59
1008.22
1007.83
1007.42
1006.99
1006.54
1006.07
1005.59
1005.08
1004.54
1003.99
1003.41
1002.81
1002.18
1001.54
1000.87
1000.18
999.463
998.73
997.978
997.208
996.423
995.623
994.812
993.991
993.163
992.33
991.496
990.663
989.834
989.012
988.199
987.398
986.613
985.843
985.093
984.364
983.658
982.975
982.318
981.686
981.081
980.502
979.95
979.425
978.926
978.453
978.005
977.581
977.181
976.804
976.448
976.113
975.799
975.503
975.226
974.965
974.721
974.492
974.279
974.079
973.893
973.719
973.557
973.408
973.269
973.141
973.024
972.915
972.817
972.727
972.646
972.574
972.509
972.452
972.402
972.36
972.324
972.294
972.271
972.253
972.241
972.234
972.233
972.236
972.243
972.255
972.271
972.291
972.315
972.342
972.372
972.405
972.44
972.478
972.519
972.561
972.606
972.652
972.699
972.748
972.797
972.848
972.898
972.949
973
973.051
973.102
973.151
973.201
973.248
973.295
973.339
973.382
973.423
973.462
973.498
973.532
973.563
973.59
973.615
973.637
973.656
973.671
973.683
973.692
973.697
973.699
973.698
973.694
973.688
973.679
973.668
973.655
973.641
973.627
973.612
973.599
973.587
973.577
973.572
973.57
973.574
973.584
973.601
973.626
973.661
973.706
973.761
973.828
973.907
973.998
974.102
974.22
974.35
974.494
974.65
974.82
975.002
975.195
975.4
975.615
975.84
976.073
976.314
976.561
976.814
977.072
977.333
977.597
977.862
978.128
978.392
978.656
978.917
979.175
979.428
979.677
979.921
980.158
980.389
980.613
980.83
981.038
981.239
981.431
981.614
981.788
981.953
982.109
982.256
982.393
982.521
982.64
982.749
982.848
982.939
983.019
983.09
983.151
983.203
983.245
983.279
983.302
983.316
983.32
983.316
983.302
983.279
983.247
983.205
983.156
983.097
983.029
982.954
982.871
982.78
982.681
982.576
982.464
982.346
982.222
982.093
981.959
981.822
981.68
981.537
981.39
981.243
981.094
980.945
980.796
980.649
980.503
980.361
980.22
980.084
979.951
979.823
979.698
979.578
979.463
979.352
979.239
979.135
979.035
978.919
978.803
978.709
978.579
978.407
978.281
978.139
977.875
977.626
977.424
977.083
976.672
976.278
975.806
975.277
974.495
1017.67
1017.61
1017.52
1017.47
1017.28
1017.08
1016.93
1016.68
1016.44
1016.24
1015.99
1015.74
1015.52
1015.29
1015.04
1014.81
1014.59
1014.36
1014.13
1013.9
1013.68
1013.45
1013.22
1012.99
1012.76
1012.53
1012.29
1012.04
1011.79
1011.53
1011.27
1010.99
1010.71
1010.41
1010.11
1009.79
1009.46
1009.11
1008.75
1008.37
1007.98
1007.56
1007.13
1006.68
1006.2
1005.7
1005.18
1004.64
1004.08
1003.49
1002.87
1002.23
1001.57
1000.88
1000.17
999.436
998.683
997.909
997.116
996.307
995.484
994.649
993.803
992.951
992.095
991.237
990.382
989.532
988.69
987.859
987.042
986.242
985.46
984.7
983.964
983.252
982.566
981.908
981.278
980.675
980.102
979.557
979.04
978.551
978.088
977.652
977.241
976.855
976.492
976.151
975.831
975.531
975.25
974.987
974.741
974.511
974.297
974.096
973.909
973.735
973.573
973.423
973.284
973.156
973.037
972.928
972.828
972.737
972.655
972.58
972.513
972.454
972.401
972.355
972.316
972.283
972.256
972.234
972.218
972.207
972.201
972.199
972.202
972.209
972.22
972.235
972.254
972.276
972.302
972.33
972.361
972.396
972.432
972.471
972.513
972.556
972.601
972.648
972.697
972.746
972.797
972.848
972.9
972.953
973.006
973.058
973.111
973.163
973.214
973.264
973.312
973.359
973.404
973.447
973.487
973.525
973.56
973.592
973.621
973.647
973.669
973.687
973.702
973.713
973.72
973.724
973.724
973.721
973.715
973.707
973.695
973.682
973.668
973.652
973.637
973.622
973.608
973.597
973.59
973.586
973.588
973.597
973.613
973.637
973.67
973.713
973.767
973.834
973.912
974.003
974.107
974.224
974.355
974.5
974.657
974.828
975.011
975.206
975.412
975.628
975.855
976.09
976.332
976.581
976.836
977.096
977.359
977.624
977.891
978.158
978.424
978.689
978.951
979.21
979.464
979.714
979.958
980.196
980.428
980.652
980.869
981.077
981.278
981.47
981.653
981.827
981.993
982.149
982.296
982.433
982.561
982.679
982.789
982.888
982.979
983.059
983.13
983.192
983.245
983.287
983.32
983.344
983.359
983.363
983.359
983.346
983.323
983.291
983.25
983.2
983.141
983.074
982.999
982.915
982.824
982.725
982.62
982.507
982.389
982.265
982.136
982.002
981.864
981.723
981.58
981.434
981.287
981.139
980.991
980.844
980.699
980.556
980.416
980.279
980.147
980.019
979.897
979.78
979.667
979.56
979.462
979.365
979.268
979.183
979.103
979.001
978.907
978.835
978.721
978.569
978.465
978.335
978.097
977.875
977.671
977.353
976.958
976.564
976.119
975.364
1017.44
1017.42
1017.36
1017.25
1017.12
1017
1016.81
1016.59
1016.43
1016.21
1015.98
1015.77
1015.56
1015.33
1015.11
1014.9
1014.68
1014.46
1014.24
1014.03
1013.81
1013.58
1013.36
1013.14
1012.91
1012.68
1012.44
1012.2
1011.95
1011.7
1011.44
1011.16
1010.88
1010.59
1010.28
1009.96
1009.63
1009.28
1008.92
1008.54
1008.14
1007.72
1007.28
1006.82
1006.34
1005.83
1005.31
1004.75
1004.17
1003.57
1002.94
1002.28
1001.6
1000.9
1000.17
999.411
998.634
997.836
997.019
996.184
995.334
994.472
993.6
992.72
991.838
990.955
990.074
989.201
988.337
987.485
986.65
985.834
985.039
984.268
983.523
982.805
982.117
981.458
980.828
980.231
979.663
979.125
978.619
978.14
977.69
977.268
976.871
976.5
976.153
975.828
975.524
975.241
974.976
974.729
974.499
974.285
974.085
973.899
973.726
973.565
973.416
973.278
973.15
973.033
972.924
972.825
972.734
972.651
972.575
972.508
972.447
972.392
972.345
972.303
972.267
972.237
972.212
972.192
972.177
972.167
972.16
972.159
972.161
972.167
972.177
972.19
972.207
972.227
972.25
972.276
972.305
972.336
972.371
972.408
972.447
972.488
972.531
972.577
972.624
972.672
972.722
972.773
972.826
972.879
972.933
972.988
973.042
973.097
973.151
973.204
973.256
973.307
973.357
973.405
973.45
973.492
973.533
973.57
973.603
973.634
973.661
973.684
973.703
973.718
973.729
973.736
973.74
973.739
973.736
973.729
973.719
973.707
973.693
973.678
973.663
973.648
973.634
973.623
973.615
973.611