# vtk DataFile Version 2.0
LBE mesh
ASCII
DATASET STRUCTURED_POINTS
DIMENSIONS 300 100 1
ASPECT_RATIO 1 1 1
ORIGIN 0 0 0
POINT_DATA 30000
SCALARS rho double 1
LOOKUP_TABLE default
1055.71
1025.42
1025.15
1031.69
1030.11
1026.6
1026.7
1027.41
1026.86
1026.29
1026.33
1026.35
1026.17
1026.04
1026.02
1025.99
1025.93
1025.9
1025.89
1025.89
1025.88
1025.89
1025.91
1025.93
1025.95
1025.97
1025.99
1026
1025.99
1025.97
1025.92
1025.84
1025.73
1025.59
1025.4
1025.17
1024.9
1024.58
1024.23
1023.83
1023.39
1022.93
1022.42
1021.89
1021.33
1020.75
1020.14
1019.51
1018.86
1018.19
1017.49
1016.78
1016.04
1015.28
1014.5
1013.69
1012.86
1012.01
1011.13
1010.24
1009.33
1008.4
1007.47
1006.52
1005.57
1004.61
1003.66
1002.71
1001.77
1000.85
999.934
999.039
998.163
997.309
996.477
995.669
994.887
994.129
993.397
992.69
992.01
991.355
990.726
990.123
989.547
988.997
988.474
987.978
987.509
987.066
986.65
986.26
985.896
985.555
985.239
984.946
984.675
984.426
984.198
983.991
983.805
983.638
983.492
983.367
983.261
983.176
983.11
983.064
983.038
983.03
983.041
983.069
983.114
983.174
983.25
983.339
983.441
983.554
983.678
983.812
983.954
984.104
984.259
984.419
984.583
984.748
984.915
985.081
985.245
985.404
985.559
985.707
985.847
985.977
986.097
986.205
986.3
986.383
986.452
986.507
986.549
986.576
986.59
986.59
986.574
986.543
986.495
986.428
986.341
986.231
986.095
985.93
985.734
985.505
985.239
984.936
984.596
984.218
983.805
983.359
982.885
982.388
981.874
981.352
980.829
980.314
979.818
979.349
978.916
978.528
978.193
977.914
977.697
977.541
977.443
977.399
977.398
977.431
977.485
977.546
977.601
977.638
977.647
977.621
977.555
977.448
977.3
977.117
976.905
976.672
976.429
976.187
975.961
975.763
975.609
975.511
975.481
975.528
975.659
975.873
976.169
976.537
976.965
977.438
977.94
978.454
978.964
979.461
979.935
980.38
980.796
981.183
981.542
981.876
982.189
982.484
982.763
983.029
983.284
983.528
983.761
983.985
984.198
984.401
984.591
984.768
984.931
985.08
985.212
985.328
985.426
985.507
985.569
985.614
985.641
985.653
985.652
985.643
985.628
985.613
985.605
985.609
985.632
985.68
985.76
985.877
986.036
986.242
986.497
986.803
987.161
987.572
988.031
988.538
989.086
989.671
990.286
990.923
991.574
992.232
992.889
993.539
994.175
994.794
995.393
995.969
996.523
997.057
997.571
998.069
998.554
999.029
999.497
999.961
1000.42
1000.88
1001.33
1001.78
1002.22
1002.64
1003.04
1003.41
1003.75
1004.05
1004.31
1004.49
1004.63
1004.73
1004.67
1004.47
1004.38
1004.13
1003.2
1002.53
1002.8
1000.83
996.655
998.884
999.95
973.895
1039.2
1036.15
1032.51
1027.75
1028.19
1028.59
1027.67
1026.76
1026.75
1026.69
1026.41
1026.2
1026.14
1026.06
1025.95
1025.88
1025.84
1025.8
1025.77
1025.75
1025.75
1025.75
1025.76
1025.78
1025.79
1025.81
1025.82
1025.82
1025.81
1025.78
1025.73
1025.65
1025.53
1025.38
1025.18
1024.95
1024.68
1024.36
1024
1023.61
1023.18
1022.71
1022.21
1021.68
1021.13
1020.55
1019.94
1019.31
1018.66
1017.99
1017.3
1016.58
1015.84
1015.08
1014.3
1013.49
1012.67
1011.82
1010.95
1010.06
1009.16
1008.24
1007.31
1006.37
1005.43
1004.48
1003.54
1002.6
1001.67
1000.75
999.852
998.966
998.101
997.256
996.434
995.634
994.861
994.11
993.387
992.687
992.014
991.364
990.743
990.145
989.575
989.03
988.513
988.021
987.558
987.119
986.708
986.32
985.96
985.622
985.31
985.017
984.749
984.5
984.274
984.066
983.88
983.712
983.566
983.437
983.33
983.241
983.173
983.123
983.094
983.081
983.089
983.112
983.154
983.21
983.282
983.367
983.466
983.576
983.698
983.829
983.969
984.116
984.269
984.427
984.589
984.752
984.917
985.081
985.243
985.401
985.554
985.7
985.839
985.969
986.088
986.196
986.292
986.375
986.446
986.502
986.545
986.575
986.59
986.591
986.577
986.546
986.498
986.43
986.342
986.229
986.09
985.922
985.722
985.488
985.217
984.909
984.564
984.182
983.765
983.316
982.84
982.341
981.828
981.305
980.784
980.272
979.779
979.313
978.886
978.503
978.173
977.901
977.688
977.537
977.442
977.4
977.4
977.432
977.484
977.543
977.595
977.628
977.635
977.606
977.54
977.433
977.288
977.109
976.902
976.677
976.443
976.212
975.999
975.815
975.676
975.593
975.578
975.64
975.784
976.009
976.313
976.686
977.116
977.588
978.087
978.595
979.1
979.591
980.06
980.5
980.912
981.294
981.65
981.98
982.29
982.58
982.855
983.116
983.365
983.604
983.832
984.05
984.258
984.455
984.64
984.813
984.972
985.117
985.247
985.361
985.458
985.538
985.6
985.645
985.674
985.688
985.69
985.683
985.672
985.661
985.656
985.664
985.689
985.74
985.822
985.939
986.098
986.302
986.555
986.857
987.21
987.614
988.066
988.564
989.102
989.675
990.277
990.901
991.539
992.184
992.829
993.467
994.094
994.704
995.297
995.869
996.42
996.952
997.467
997.966
998.452
998.928
999.398
999.862
1000.32
1000.78
1001.23
1001.67
1002.11
1002.52
1002.92
1003.28
1003.62
1003.91
1004.16
1004.36
1004.47
1004.51
1004.51
1004.39
1004.05
1003.71
1003.42
1002.49
1001.18
1000.79
999.612
995.082
991.05
989.013
1031.45
1036.45
1032.17
1028.22
1028.72
1028.68
1027.53
1026.81
1026.81
1026.64
1026.3
1026.09
1026
1025.88
1025.75
1025.66
1025.6
1025.54
1025.49
1025.47
1025.46
1025.45
1025.46
1025.47
1025.48
1025.49
1025.5
1025.5
1025.48
1025.44
1025.38
1025.29
1025.17
1025.01
1024.81
1024.57
1024.3
1023.98
1023.63
1023.24
1022.81
1022.35
1021.86
1021.34
1020.79
1020.21
1019.61
1018.98
1018.34
1017.67
1016.97
1016.26
1015.52
1014.76
1013.98
1013.18
1012.36
1011.51
1010.65
1009.76
1008.87
1007.96
1007.04
1006.11
1005.18
1004.24
1003.31
1002.39
1001.47
1000.57
999.681
998.808
997.957
997.125
996.317
995.529
994.768
994.028
993.315
992.625
991.962
991.322
990.709
990.119
989.558
989.02
988.511
988.025
987.569
987.136
986.732
986.349
985.995
985.662
985.354
985.065
984.801
984.554
984.33
984.123
983.938
983.768
983.621
983.49
983.38
983.287
983.216
983.161
983.127
983.109
983.113
983.131
983.168
983.22
983.289
983.369
983.467
983.573
983.694
983.822
983.961
984.106
984.259
984.415
984.577
984.74
984.905
985.068
985.23
985.388
985.542
985.688
985.828
985.958
986.079
986.189
986.287
986.373
986.447
986.507
986.555
986.587
986.607
986.611
986.6
986.572
986.526
986.459
986.37
986.256
986.115
985.943
985.739
985.499
985.222
984.907
984.555
984.165
983.74
983.283
982.799
982.294
981.774
981.247
980.721
980.206
979.711
979.246
978.82
978.439
978.113
977.846
977.64
977.495
977.408
977.373
977.38
977.419
977.476
977.538
977.594
977.63
977.638
977.612
977.547
977.443
977.301
977.126
976.925
976.707
976.482
976.262
976.06
975.891
975.767
975.702
975.706
975.787
975.95
976.193
976.514
976.901
977.343
977.824
978.328
978.839
979.344
979.832
980.296
980.732
981.138
981.514
981.862
982.185
982.486
982.768
983.034
983.286
983.526
983.755
983.973
984.182
984.38
984.569
984.746
984.911
985.064
985.204
985.33
985.44
985.536
985.615
985.678
985.724
985.755
985.772
985.778
985.775
985.767
985.76
985.758
985.768
985.795
985.847
985.928
986.044
986.199
986.399
986.645
986.94
987.284
987.676
988.116
988.598
989.12
989.676
990.259
990.864
991.482
992.108
992.735
993.356
993.967
994.564
995.146
995.71
996.255
996.784
997.297
997.795
998.282
998.761
999.232
999.698
1000.16
1000.62
1001.07
1001.51
1001.94
1002.35
1002.74
1003.1
1003.44
1003.73
1003.96
1004.17
1004.31
1004.32
1004.29
1004.27
1003.95
1003.4
1003.28
1002.85
1000.88
1000.11
1001.35
996.806
990.849
995.763
1031.22
1030.24
1029.99
1031.36
1029.12
1027.27
1027.41
1027.5
1026.76
1026.23
1026.15
1026.03
1025.76
1025.56
1025.46
1025.35
1025.24
1025.16
1025.11
1025.07
1025.05
1025.03
1025.03
1025.03
1025.04
1025.04
1025.04
1025.03
1025.01
1024.96
1024.89
1024.79
1024.66
1024.49
1024.29
1024.05
1023.77
1023.46
1023.11
1022.73
1022.31
1021.86
1021.37
1020.86
1020.32
1019.75
1019.15
1018.53
1017.89
1017.22
1016.53
1015.82
1015.08
1014.32
1013.55
1012.75
1011.93
1011.09
1010.23
1009.35
1008.46
1007.56
1006.65
1005.74
1004.82
1003.9
1002.98
1002.08
1001.18
1000.29
999.418
998.562
997.727
996.911
996.118
995.346
994.599
993.874
993.175
992.497
991.846
991.218
990.616
990.037
989.486
988.958
988.458
987.982
987.534
987.109
986.713
986.338
985.991
985.664
985.363
985.08
984.82
984.577
984.357
984.151
983.968
983.798
983.65
983.517
983.405
983.309
983.234
983.174
983.136
983.113
983.112
983.125
983.158
983.205
983.271
983.348
983.443
983.548
983.667
983.794
983.933
984.078
984.232
984.388
984.551
984.714
984.881
985.045
985.209
985.367
985.524
985.671
985.814
985.946
986.07
986.183
986.286
986.376
986.456
986.521
986.574
986.613
986.639
986.648
986.642
986.618
986.575
986.51
986.423
986.308
986.165
985.99
985.781
985.534
985.251
984.927
984.566
984.166
983.731
983.263
982.769
982.253
981.724
981.187
980.654
980.132
979.633
979.163
978.736
978.355
978.032
977.768
977.568
977.43
977.352
977.326
977.344
977.392
977.46
977.531
977.595
977.638
977.653
977.632
977.573
977.474
977.338
977.169
976.976
976.766
976.551
976.343
976.156
976.002
975.895
975.849
975.873
975.976
976.161
976.427
976.769
977.176
977.635
978.131
978.645
979.164
979.674
980.163
980.626
981.058
981.458
981.826
982.166
982.479
982.77
983.04
983.294
983.533
983.76
983.975
984.18
984.376
984.562
984.738
984.904
985.059
985.203
985.336
985.456
985.562
985.655
985.733
985.796
985.844
985.878
985.899
985.908
985.91
985.907
985.904
985.906
985.918
985.948
985.999
986.079
986.192
986.343
986.536
986.773
987.057
987.387
987.764
988.186
988.648
989.148
989.68
990.238
990.817
991.41
992.01
992.611
993.21
993.801
994.381
994.947
995.499
996.037
996.56
997.07
997.568
998.056
998.536
999.011
999.479
999.943
1000.4
1000.85
1001.29
1001.72
1002.13
1002.52
1002.88
1003.21
1003.51
1003.75
1003.93
1004.09
1004.18
1004.11
1003.98
1003.93
1003.58
1002.82
1002.57
1002.38
1000.5
999.051
999.542
999.009
997.57
1031.23
1029.34
1029.49
1029.58
1028.3
1028.03
1027.63
1026.93
1026.45
1026.28
1026.02
1025.68
1025.44
1025.28
1025.12
1024.95
1024.83
1024.74
1024.66
1024.6
1024.56
1024.54
1024.52
1024.52
1024.51
1024.51
1024.5
1024.47
1024.44
1024.38
1024.29
1024.18
1024.03
1023.86
1023.65
1023.4
1023.13
1022.81
1022.47
1022.09
1021.68
1021.24
1020.77
1020.26
1019.73
1019.17
1018.58
1017.97
1017.33
1016.66
1015.97
1015.26
1014.53
1013.78
1013
1012.2
1011.39
1010.55
1009.7
1008.83
1007.95
1007.06
1006.16
1005.26
1004.36
1003.45
1002.56
1001.66
1000.78
999.914
999.061
998.224
997.407
996.609
995.834
995.08
994.349
993.641
992.957
992.294
991.658
991.043
990.455
989.889
989.35
988.834
988.345
987.88
987.443
987.029
986.642
986.277
985.939
985.62
985.327
985.051
984.798
984.561
984.345
984.143
983.962
983.794
983.647
983.514
983.4
983.302
983.224
983.161
983.119
983.092
983.086
983.095
983.125
983.168
983.232
983.307
983.4
983.503
983.623
983.749
983.89
984.035
984.19
984.348
984.514
984.679
984.848
985.014
985.181
985.342
985.502
985.652
985.799
985.935
986.065
986.182
986.291
986.387
986.473
986.545
986.606
986.652
986.685
986.701
986.702
986.683
986.645
986.584
986.499
986.384
986.24
986.061
985.848
985.595
985.304
984.97
984.598
984.186
983.74
983.259
982.753
982.224
981.683
981.135
980.592
980.06
979.554
979.079
978.648
978.267
977.945
977.684
977.491
977.361
977.293
977.278
977.308
977.368
977.448
977.53
977.605
977.657
977.681
977.667
977.615
977.523
977.395
977.234
977.05
976.85
976.647
976.453
976.281
976.145
976.059
976.034
976.083
976.21
976.422
976.714
977.082
977.513
977.995
978.508
979.038
979.567
980.083
980.575
981.038
981.466
981.86
982.22
982.55
982.852
983.129
983.385
983.625
983.848
984.059
984.258
984.447
984.626
984.796
984.958
985.109
985.253
985.386
985.509
985.621
985.722
985.811
985.887
985.949
985.999
986.036
986.06
986.074
986.081
986.082
986.084
986.091
986.107
986.138
986.191
986.269
986.379
986.525
986.709
986.936
987.206
987.52
987.878
988.277
988.715
989.188
989.691
990.219
990.766
991.327
991.896
992.467
993.038
993.604
994.162
994.71
995.248
995.775
996.292
996.798
997.295
997.784
998.266
998.743
999.215
999.682
1000.14
1000.59
1001.04
1001.46
1001.87
1002.26
1002.62
1002.95
1003.25
1003.52
1003.72
1003.85
1003.98
1004.02
1003.84
1003.72
1003.72
1003.13
1002.35
1002.64
1002.14
1000.07
1000.3
1001.08
1000.01
1029.2
1029.41
1029.17
1027.88
1028.14
1028.11
1027.06
1026.53
1026.45
1026.12
1025.62
1025.35
1025.18
1024.95
1024.7
1024.53
1024.4
1024.28
1024.17
1024.1
1024.05
1024.01
1023.98
1023.96
1023.94
1023.92
1023.9
1023.86
1023.8
1023.73
1023.62
1023.49
1023.33
1023.14
1022.92
1022.67
1022.39
1022.07
1021.73
1021.36
1020.96
1020.52
1020.06
1019.57
1019.04
1018.49
1017.91
1017.3
1016.67
1016.01
1015.32
1014.61
1013.88
1013.13
1012.36
1011.56
1010.75
1009.92
1009.07
1008.21
1007.34
1006.46
1005.58
1004.69
1003.8
1002.91
1002.03
1001.16
1000.29
999.445
998.611
997.794
996.997
996.218
995.462
994.726
994.014
993.323
992.656
992.011
991.39
990.792
990.218
989.667
989.142
988.64
988.164
987.712
987.288
986.886
986.51
986.157
985.829
985.522
985.237
984.971
984.725
984.496
984.286
984.091
983.914
983.75
983.605
983.473
983.36
983.261
983.182
983.118
983.074
983.044
983.036
983.042
983.07
983.111
983.173
983.247
983.341
983.444
983.564
983.692
983.835
983.982
984.141
984.302
984.471
984.639
984.813
984.982
985.154
985.318
985.482
985.638
985.789
985.93
986.066
986.189
986.306
986.409
986.503
986.583
986.653
986.707
986.749
986.773
986.782
986.769
986.737
986.68
986.598
986.484
986.34
986.158
985.941
985.681
985.382
985.039
984.656
984.232
983.772
983.277
982.757
982.214
981.659
981.098
980.544
980.002
979.488
979.006
978.571
978.188
977.866
977.609
977.422
977.3
977.244
977.241
977.284
977.358
977.452
977.547
977.634
977.696
977.729
977.724
977.68
977.595
977.475
977.323
977.149
976.961
976.772
976.592
976.438
976.32
976.257
976.256
976.331
976.487
976.728
977.05
977.447
977.907
978.414
978.949
979.497
980.04
980.564
981.06
981.522
981.947
982.334
982.685
983.004
983.292
983.555
983.796
984.018
984.224
984.416
984.596
984.766
984.927
985.079
985.223
985.359
985.487
985.607
985.718
985.821
985.915
985.998
986.071
986.132
986.182
986.22
986.248
986.266
986.278
986.285
986.292
986.303
986.323
986.357
986.41
986.488
986.595
986.735
986.911
987.126
987.381
987.677
988.013
988.388
988.799
989.241
989.711
990.204
990.715
991.24
991.772
992.31
992.849
993.386
993.919
994.447
994.968
995.482
995.99
996.491
996.986
997.475
997.96
998.439
998.914
999.384
999.847
1000.3
1000.74
1001.17
1001.58
1001.97
1002.33
1002.68
1002.97
1003.24
1003.49
1003.65
1003.73
1003.84
1003.87
1003.63
1003.47
1003.58
1003.04
1002.27
1002.54
1002.6
1001.77
1001.63
1002.74
1028.15
1028.68
1028.34
1027.82
1027.73
1027.08
1026.77
1026.58
1026.08
1025.6
1025.36
1025.13
1024.8
1024.52
1024.33
1024.15
1023.96
1023.81
1023.7
1023.61
1023.53
1023.48
1023.43
1023.4
1023.36
1023.33
1023.28
1023.22
1023.15
1023.05
1022.92
1022.77
1022.59
1022.38
1022.14
1021.88
1021.59
1021.27
1020.93
1020.56
1020.16
1019.73
1019.28
1018.79
1018.27
1017.73
1017.16
1016.55
1015.92
1015.27
1014.59
1013.88
1013.15
1012.4
1011.63
1010.84
1010.03
1009.21
1008.37
1007.51
1006.65
1005.78
1004.91
1004.03
1003.16
1002.28
1001.42
1000.56
999.719
998.889
998.074
997.276
996.499
995.74
995.003
994.287
993.593
992.921
992.272
991.645
991.041
990.46
989.902
989.368
988.858
988.371
987.911
987.474
987.063
986.675
986.313
985.973
985.657
985.361
985.088
984.832
984.597
984.377
984.175
983.987
983.817
983.659
983.519
983.391
983.281
983.185
983.107
983.044
983
982.97
982.962
982.968
982.995
983.037
983.1
983.175
983.269
983.375
983.498
983.629
983.775
983.927
984.089
984.255
984.428
984.602
984.78
984.954
985.131
985.301
985.471
985.631
985.789
985.937
986.079
986.21
986.335
986.446
986.549
986.638
986.718
986.781
986.833
986.865
986.883
986.877
986.853
986.8
986.722
986.61
986.466
986.283
986.062
985.796
985.49
985.137
984.743
984.306
983.833
983.324
982.79
982.232
981.664
981.089
980.523
979.97
979.446
978.958
978.518
978.132
977.812
977.558
977.377
977.264
977.218
977.228
977.286
977.374
977.482
977.59
977.689
977.762
977.805
977.808
977.772
977.695
977.583
977.44
977.276
977.1
976.925
976.761
976.625
976.529
976.489
976.514
976.617
976.803
977.076
977.431
977.861
978.351
978.887
979.447
980.015
980.571
981.106
981.607
982.069
982.49
982.871
983.212
983.518
983.793
984.04
984.263
984.466
984.652
984.824
984.984
985.133
985.273
985.405
985.53
985.647
985.758
985.863
985.96
986.051
986.135
986.212
986.279
986.337
986.386
986.425
986.455
986.477
986.493
986.505
986.517
986.533
986.558
986.595
986.649
986.727
986.831
986.965
987.133
987.336
987.576
987.854
988.168
988.516
988.897
989.306
989.74
990.195
990.667
991.152
991.646
992.147
992.651
993.156
993.662
994.167
994.669
995.169
995.667
996.161
996.652
997.141
997.626
998.108
998.586
999.058
999.523
999.979
1000.42
1000.85
1001.26
1001.65
1002.02
1002.37
1002.69
1002.96
1003.21
1003.45
1003.57
1003.62
1003.77
1003.77
1003.48
1003.49
1003.65
1003.11
1002.82
1003.32
1003.23
1003.26
1004.37
1027.83
1027.64
1027.5
1027.69
1027.12
1026.59
1026.53
1026.12
1025.63
1025.35
1025.08
1024.72
1024.41
1024.19
1023.96
1023.73
1023.54
1023.4
1023.26
1023.15
1023.06
1022.99
1022.92
1022.87
1022.81
1022.76
1022.69
1022.6
1022.5
1022.38
1022.22
1022.05
1021.84
1021.61
1021.35
1021.07
1020.77
1020.44
1020.09
1019.72
1019.32
1018.89
1018.44
1017.96
1017.45
1016.91
1016.34
1015.75
1015.12
1014.47
1013.79
1013.09
1012.36
1011.62
1010.85
1010.06
1009.26
1008.43
1007.6
1006.75
1005.9
1005.04
1004.17
1003.31
1002.44
1001.59
1000.74
999.896
999.068
998.255
997.458
996.679
995.919
995.179
994.461
993.764
993.089
992.435
991.805
991.196
990.61
990.047
989.507
988.99
988.497
988.027
987.583
987.162
986.766
986.394
986.046
985.721
985.419
985.137
984.876
984.633
984.409
984.2
984.009
983.831
983.669
983.52
983.386
983.266
983.162
983.071
982.997
982.938
982.897
982.871
982.865
982.875
982.904
982.949
983.014
983.093
983.191
983.302
983.428
983.565
983.715
983.873
984.041
984.213
984.392
984.572
984.756
984.937
985.12
985.296
985.472
985.64
985.805
985.96
986.111
986.25
986.383
986.504
986.617
986.716
986.805
986.879
986.94
986.982
987.008
987.011
986.994
986.947
986.874
986.765
986.622
986.438
986.214
985.944
985.631
985.269
984.866
984.417
983.931
983.408
982.86
982.288
981.706
981.118
980.54
979.976
979.444
978.948
978.504
978.115
977.795
977.544
977.369
977.264
977.229
977.251
977.323
977.426
977.548
977.669
977.779
977.862
977.914
977.924
977.896
977.825
977.722
977.587
977.434
977.269
977.109
976.961
976.846
976.771
976.755
976.807
976.941
977.158
977.465
977.854
978.318
978.84
979.405
979.991
980.58
981.153
981.698
982.204
982.667
983.084
983.458
983.789
984.082
984.341
984.572
984.776
984.96
985.126
985.276
985.414
985.541
985.659
985.77
985.873
985.97
986.062
986.148
986.23
986.307
986.38
986.446
986.506
986.559
986.604
986.642
986.673
986.697
986.716
986.733
986.75
986.771
986.8
986.841
986.898
986.976
987.078
987.208
987.368
987.561
987.786
988.045
988.336
988.657
989.007
989.382
989.779
990.194
990.625
991.069
991.522
991.984
992.451
992.924
993.401
993.88
994.362
994.847
995.332
995.819
996.305
996.791
997.276
997.759
998.239
998.713
999.179
999.636
1000.08
1000.51
1000.92
1001.32
1001.69
1002.04
1002.38
1002.69
1002.94
1003.18
1003.41
1003.51
1003.55
1003.74
1003.77
1003.53
1003.63
1003.91
1003.72
1003.69
1004.24
1004.8
1005.41
1027.29
1027.16
1027.09
1026.94
1026.58
1026.44
1026.04
1025.59
1025.37
1025.06
1024.66
1024.34
1024.11
1023.84
1023.57
1023.36
1023.19
1023.02
1022.86
1022.74
1022.64
1022.55
1022.46
1022.39
1022.31
1022.23
1022.13
1022.02
1021.89
1021.74
1021.56
1021.35
1021.12
1020.86
1020.58
1020.28
1019.95
1019.61
1019.25
1018.87
1018.46
1018.03
1017.58
1017.1
1016.59
1016.06
1015.49
1014.9
1014.28
1013.63
1012.96
1012.26
1011.54
1010.79
1010.03
1009.24
1008.44
1007.62
1006.79
1005.95
1005.1
1004.24
1003.39
1002.53
1001.68
1000.83
999.994
999.166
998.352
997.554
996.773
996.01
995.266
994.543
993.843
993.163
992.505
991.87
991.257
990.667
990.1
989.555
989.034
988.535
988.06
987.609
987.182
986.778
986.399
986.044
985.712
985.403
985.116
984.849
984.602
984.373
984.162
983.966
983.787
983.621
983.47
983.332
983.208
983.098
983.002
982.919
982.853
982.801
982.766
982.747
982.747
982.763
982.797
982.849
982.92
983.006
983.109
983.226
983.36
983.504
983.661
983.827
984.002
984.182
984.368
984.556
984.747
984.936
985.126
985.31
985.494
985.67
985.843
986.006
986.165
986.313
986.456
986.586
986.71
986.819
986.919
987.002
987.074
987.126
987.162
987.174
987.164
987.124
987.056
986.951
986.811
986.627
986.402
986.128
985.81
985.441
985.028
984.569
984.071
983.536
982.975
982.39
981.795
981.195
980.606
980.032
979.491
978.988
978.54
978.149
977.829
977.58
977.411
977.314
977.289
977.322
977.407
977.522
977.657
977.789
977.91
978.001
978.061
978.077
978.054
977.99
977.894
977.767
977.625
977.472
977.326
977.195
977.1
977.047
977.057
977.137
977.301
977.551
977.891
978.314
978.812
979.367
979.962
980.573
981.183
981.772
982.327
982.838
983.302
983.716
984.082
984.403
984.683
984.927
985.141
985.327
985.491
985.635
985.764
985.879
985.984
986.079
986.166
986.246
986.322
986.393
986.46
986.524
986.584
986.642
986.696
986.746
986.791
986.831
986.866
986.895
986.919
986.941
986.961
986.982
987.008
987.042
987.087
987.148
987.227
987.329
987.456
987.61
987.793
988.004
988.245
988.513
988.808
989.127
989.467
989.826
990.202
990.591
990.993
991.405
991.827
992.257
992.696
993.143
993.597
994.057
994.524
994.997
995.474
995.953
996.436
996.919
997.401
997.88
998.355
998.822
999.279
999.724
1000.15
1000.57
1000.97
1001.35
1001.71
1002.05
1002.38
1002.68
1002.91
1003.16
1003.4
1003.48
1003.57
1003.82
1003.87
1003.8
1004.07
1004.36
1004.48
1004.92
1005.51
1006.35
1026.66
1026.73
1026.65
1026.33
1026.21
1026.02
1025.58
1025.31
1025.03
1024.65
1024.34
1024.07
1023.78
1023.5
1023.27
1023.06
1022.86
1022.68
1022.53
1022.4
1022.28
1022.17
1022.07
1021.98
1021.88
1021.77
1021.64
1021.5
1021.34
1021.15
1020.94
1020.7
1020.44
1020.15
1019.85
1019.52
1019.18
1018.82
1018.44
1018.04
1017.62
1017.18
1016.72
1016.24
1015.73
1015.19
1014.63
1014.04
1013.42
1012.78
1012.11
1011.41
1010.69
1009.95
1009.19
1008.4
1007.6
1006.79
1005.96
1005.12
1004.28
1003.43
1002.57
1001.72
1000.88
1000.04
999.207
998.389
997.586
996.798
996.029
995.279
994.549
993.84
993.154
992.49
991.849
991.231
990.635
990.063
989.514
988.988
988.485
988.006
987.55
987.118
986.71
986.325
985.965
985.628
985.314
985.022
984.751
984.501
984.27
984.057
983.86
983.679
983.514
983.362
983.224
983.099
982.987
982.888
982.804
982.733
982.677
982.635
982.61
982.601
982.609
982.635
982.679
982.739
982.819
982.914
983.027
983.154
983.296
983.45
983.616
983.791
983.976
984.165
984.361
984.557
984.757
984.956
985.154
985.348
985.54
985.725
985.906
986.08
986.248
986.406
986.558
986.699
986.833
986.953
987.063
987.158
987.24
987.302
987.347
987.368
987.367
987.334
987.272
987.172
987.035
986.853
986.627
986.352
986.03
985.656
985.236
984.768
984.26
983.715
983.142
982.546
981.94
981.329
980.73
980.147
979.599
979.09
978.637
978.244
977.924
977.678
977.513
977.422
977.406
977.45
977.546
977.672
977.817
977.958
978.087
978.185
978.25
978.27
978.252
978.192
978.102
977.983
977.85
977.709
977.578
977.465
977.389
977.359
977.394
977.502
977.697
977.978
978.353
978.809
979.341
979.926
980.549
981.185
981.815
982.418
982.983
983.498
983.963
984.372
984.731
985.041
985.309
985.538
985.735
985.903
986.047
986.171
986.278
986.371
986.453
986.524
986.588
986.645
986.698
986.747
986.793
986.836
986.878
986.919
986.957
986.994
987.029
987.06
987.089
987.114
987.137
987.159
987.182
987.207
987.237
987.276
987.326
987.391
987.473
987.576
987.701
987.851
988.025
988.224
988.448
988.696
988.965
989.254
989.56
989.882
990.219
990.567
990.927
991.299
991.682
992.076
992.48
992.897
993.324
993.763
994.211
994.67
995.135
995.607
996.083
996.562
997.041
997.518
997.991
998.457
998.912
999.355
999.786
1000.2
1000.6
1000.98
1001.36
1001.71
1002.04
1002.38
1002.67
1002.9
1003.17
1003.42
1003.53
1003.67
1003.98
1004.15
1004.25
1004.63
1005.11
1005.5
1006.03
1007.03
1026.22
1026.23
1026.13
1025.98
1025.81
1025.48
1025.26
1025.02
1024.64
1024.33
1024.08
1023.78
1023.48
1023.24
1023.01
1022.79
1022.59
1022.42
1022.26
1022.12
1021.99
1021.87
1021.75
1021.64
1021.51
1021.38
1021.23
1021.05
1020.86
1020.64
1020.39
1020.13
1019.83
1019.52
1019.18
1018.83
1018.46
1018.07
1017.67
1017.26
1016.82
1016.37
1015.89
1015.4
1014.88
1014.34
1013.78
1013.19
1012.57
1011.93
1011.26
1010.57
1009.85
1009.11
1008.35
1007.57
1006.77
1005.96
1005.13
1004.29
1003.44
1002.59
1001.74
1000.9
1000.05
999.216
998.39
997.577
996.779
995.999
995.237
994.496
993.776
993.078
992.404
991.753
991.126
990.523
989.944
989.388
988.857
988.35
987.866
987.406
986.97
986.558
986.171
985.807
985.467
985.149
984.855
984.582
984.33
984.098
983.884
983.688
983.508
983.344
983.193
983.057
982.934
982.824
982.727
982.643
982.572
982.514
982.471
982.443
982.431
982.434
982.455
982.493
982.549
982.622
982.713
982.82
982.945
983.084
983.238
983.404
983.582
983.769
983.965
984.166
984.372
984.58
984.79
984.999
985.208
985.412
985.614
985.809
986.001
986.184
986.363
986.532
986.694
986.846
986.99
987.121
987.242
987.348
987.44
987.513
987.568
987.598
987.605
987.581
987.525
987.431
987.298
987.119
986.895
986.619
986.295
985.917
985.492
985.017
984.502
983.948
983.366
982.761
982.145
981.526
980.918
980.328
979.773
979.259
978.802
978.407
978.087
977.843
977.681
977.597
977.587
977.64
977.744
977.879
978.032
978.18
978.314
978.415
978.482
978.505
978.49
978.433
978.348
978.235
978.112
977.983
977.866
977.77
977.714
977.707
977.768
977.903
978.128
978.44
978.847
979.335
979.897
980.511
981.161
981.818
982.465
983.08
983.653
984.172
984.635
985.04
985.392
985.692
985.948
986.163
986.344
986.494
986.62
986.724
986.81
986.882
986.941
986.99
987.03
987.064
987.093
987.118
987.141
987.162
987.183
987.205
987.226
987.247
987.268
987.288
987.308
987.327
987.346
987.367
987.391
987.418
987.453
987.496
987.551
987.621
987.708
987.813
987.938
988.085
988.252
988.441
988.65
988.878
989.123
989.384
989.659
989.946
990.245
990.554
990.875
991.208
991.553
991.911
992.283
992.669
993.071
993.487
993.916
994.359
994.811
995.273
995.741
996.213
996.687
997.16
997.629
998.09
998.543
998.982
999.409
999.824
1000.23
1000.61
1000.99
1001.37
1001.71
1002.04
1002.39
1002.68
1002.91
1003.21
1003.48
1003.64
1003.89
1004.25
1004.53
1004.85
1005.34
1005.89
1006.49
1007.4
1025.84
1025.77
1025.67
1025.6
1025.37
1025.13
1024.94
1024.63
1024.34
1024.09
1023.8
1023.51
1023.26
1023.03
1022.78
1022.57
1022.39
1022.22
1022.05
1021.91
1021.77
1021.64
1021.51
1021.37
1021.22
1021.06
1020.88
1020.68
1020.46
1020.2
1019.93
1019.63
1019.3
1018.96
1018.6
1018.22
1017.82
1017.41
1016.98
1016.54
1016.08
1015.61
1015.12
1014.61
1014.08
1013.53
1012.96
1012.37
1011.75
1011.11
1010.44
1009.75
1009.04
1008.3
1007.54
1006.75
1005.95
1005.14
1004.31
1003.47
1002.62
1001.77
1000.91
1000.06
999.218
998.38
997.553
996.741
995.944
995.165
994.406
993.669
992.955
992.265
991.598
990.958
990.342
989.752
989.188
988.648
988.134
987.645
987.18
986.74
986.325
985.935
985.569
985.227
984.909
984.613
984.34
984.089
983.857
983.645
983.45
983.273
983.111
982.965
982.832
982.713
982.607
982.514
982.433
982.365
982.31
982.269
982.242
982.229
982.232
982.251
982.287
982.339
982.41
982.498
982.604
982.726
982.865
983.019
983.187
983.367
983.559
983.76
983.97
984.184
984.403
984.624
984.847
985.068
985.288
985.505
985.718
985.925
986.128
986.323
986.513
986.693
986.867
987.03
987.185
987.328
987.459
987.575
987.678
987.761
987.826
987.866
987.881
987.865
987.816
987.729
987.601
987.427
987.205
986.931
986.606
986.227
985.799
985.32
984.8
984.24
983.65
983.038
982.415
981.789
981.174
980.579
980.018
979.5
979.04
978.644
978.323
978.08
977.921
977.84
977.837
977.895
978.005
978.146
978.304
978.456
978.592
978.695
978.761
978.784
978.769
978.714
978.632
978.526
978.411
978.293
978.191
978.112
978.075
978.09
978.176
978.339
978.592
978.934
979.37
979.887
980.478
981.117
981.788
982.463
983.125
983.749
984.327
984.847
985.308
985.708
986.052
986.342
986.586
986.787
986.954
987.088
987.198
987.284
987.351
987.402
987.441
987.467
987.486
987.496
987.501
987.502
987.501
987.499
987.497
987.496
987.497
987.499
987.504
987.51
987.519
987.529
987.543
987.56
987.583
987.612
987.65
987.698
987.759
987.834
987.926
988.034
988.161
988.306
988.469
988.65
988.846
989.057
989.281
989.516
989.761
990.016
990.28
990.553
990.838
991.134
991.443
991.768
992.109
992.467
992.842
993.236
993.645
994.071
994.509
994.958
995.416
995.879
996.345
996.811
997.273
997.727
998.173
998.609
999.03
999.44
999.842
1000.23
1000.61
1000.99
1001.37
1001.71
1002.05
1002.4
1002.7
1002.95
1003.28
1003.6
1003.84
1004.18
1004.61
1005.02
1005.47
1006.08
1006.72
1007.57
1025.43
1025.39
1025.3
1025.16
1024.99
1024.83
1024.58
1024.32
1024.1
1023.84
1023.55
1023.31
1023.08
1022.83
1022.62
1022.43
1022.24
1022.07
1021.91
1021.76
1021.62
1021.47
1021.33
1021.18
1021.01
1020.82
1020.62
1020.39
1020.13
1019.85
1019.54
1019.21
1018.86
1018.49
1018.1
1017.69
1017.26
1016.82
1016.37
1015.9
1015.42
1014.92
1014.41
1013.89
1013.34
1012.78
1012.2
1011.6
1010.98
1010.33
1009.66
1008.97
1008.26
1007.51
1006.75
1005.97
1005.16
1004.34
1003.51
1002.66
1001.81
1000.95
1000.09
999.234
998.381
997.537
996.705
995.887
995.085
994.303
993.543
992.805
992.092
991.405
990.744
990.109
989.503
988.923
988.371
987.846
987.348
986.877
986.432
986.013
985.619
985.251
984.909
984.59
984.296
984.024
983.775
983.546
983.337
983.147
982.974
982.817
982.675
982.549
982.435
982.335
982.247
982.172
982.11
982.06
982.023
982
981.99
981.996
982.016
982.052
982.106
982.176
982.264
982.37
982.492
982.631
982.787
982.958
983.143
983.34
983.548
983.765
983.99
984.221
984.455
984.691
984.928
985.163
985.397
985.627
985.853
986.074
986.289
986.497
986.699
986.891
987.077
987.252
987.418
987.572
987.714
987.841
987.954
988.048
988.122
988.172
988.196
988.188
988.147
988.067
987.945
987.776
987.559
987.288
986.965
986.586
986.157
985.676
985.152
984.589
983.995
983.378
982.749
982.118
981.499
980.9
980.335
979.814
979.352
978.954
978.632
978.39
978.233
978.155
978.154
978.216
978.329
978.474