# vtk DataFile Version 2.0
LBE mesh
ASCII
DATASET STRUCTURED_POINTS
DIMENSIONS 300 100 1
ASPECT_RATIO 1 1 1
ORIGIN 0 0 0
POINT_DATA 30000
SCALARS rho double 1
LOOKUP_TABLE default
1047.42
1015.78
1015.03
1021.46
1019.6
1015.67
1015.45
1015.93
1015.12
1014.29
1014.09
1013.89
1013.49
1013.14
1012.91
1012.66
1012.37
1012.11
1011.87
1011.62
1011.37
1011.11
1010.86
1010.6
1010.34
1010.07
1009.8
1009.52
1009.23
1008.93
1008.63
1008.31
1007.98
1007.65
1007.3
1006.94
1006.56
1006.18
1005.78
1005.36
1004.93
1004.48
1004.02
1003.54
1003.05
1002.53
1002
1001.46
1000.89
1000.31
999.71
999.092
998.458
997.807
997.139
996.456
995.758
995.046
994.321
993.585
992.838
992.082
991.319
990.55
989.777
989.002
988.227
987.453
986.683
985.919
985.163
984.416
983.68
982.959
982.252
981.562
980.891
980.24
979.61
979.003
978.418
977.858
977.322
976.812
976.328
975.87
975.438
975.033
974.654
974.301
973.974
973.673
973.396
973.145
972.917
972.714
972.533
972.375
972.238
972.123
972.029
971.955
971.9
971.864
971.845
971.845
971.861
971.894
971.942
972.005
972.083
972.174
972.279
972.397
972.527
972.669
972.822
972.986
973.159
973.343
973.536
973.737
973.946
974.162
974.386
974.616
974.852
975.094
975.34
975.59
975.844
976.101
976.361
976.622
976.885
977.149
977.413
977.676
977.938
978.199
978.457
978.713
978.965
979.213
979.456
979.695
979.928
980.155
980.375
980.589
980.795
980.993
981.183
981.365
981.538
981.703
981.858
982.004
982.141
982.268
982.385
982.492
982.59
982.678
982.756
982.824
982.882
982.93
982.968
982.995
983.012
983.018
983.014
982.998
982.97
982.931
982.879
982.815
982.737
982.647
982.543
982.425
982.295
982.151
981.995
981.827
981.649
981.46
981.264
981.061
980.853
980.643
980.431
980.222
980.017
979.819
979.631
979.455
979.295
979.152
979.03
978.93
978.855
978.805
978.784
978.792
978.83
978.899
978.998
979.127
979.287
979.475
979.691
979.932
980.198
980.486
980.794
981.12
981.461
981.815
982.18
982.553
982.932
983.314
983.697
984.079
984.459
984.835
985.205
985.567
985.922
986.266
986.6
986.924
987.236
987.537
987.826
988.103
988.369
988.623
988.867
989.1
989.324
989.539
989.745
989.943
990.135
990.32
990.5
990.676
990.848
991.016
991.182
991.345
991.506
991.666
991.824
991.981
992.136
992.29
992.441
992.591
992.737
992.881
993.021
993.156
993.286
993.41
993.528
993.637
993.738
993.829
993.911
993.98
994.038
994.082
994.112
994.126
994.124
994.104
994.067
994.006
993.921
993.822
993.691
993.511
993.319
993.121
992.802
992.391
992.131
991.739
990.723
990.026
990.218
988.215
984.175
986.26
987.138
962.292
1030.35
1026.79
1022.68
1017.47
1017.62
1017.75
1016.54
1015.36
1015.09
1014.8
1014.29
1013.86
1013.59
1013.3
1012.98
1012.7
1012.44
1012.18
1011.91
1011.66
1011.4
1011.14
1010.88
1010.62
1010.35
1010.08
1009.8
1009.52
1009.23
1008.93
1008.62
1008.3
1007.97
1007.63
1007.28
1006.92
1006.54
1006.15
1005.75
1005.33
1004.9
1004.45
1003.99
1003.51
1003.01
1002.5
1001.96
1001.42
1000.85
1000.27
999.666
999.048
998.412
997.761
997.093
996.41
995.712
995.001
994.277
993.542
992.796
992.042
991.28
990.513
989.742
988.969
988.197
987.426
986.659
985.897
985.144
984.401
983.669
982.95
982.247
981.561
980.893
980.245
979.619
979.014
978.433
977.876
977.343
976.836
976.355
975.899
975.47
975.067
974.69
974.339
974.013
973.713
973.438
973.188
972.962
972.759
972.579
972.421
972.286
972.171
972.077
972.003
971.948
971.911
971.893
971.892
971.908
971.94
971.988
972.051
972.128
972.219
972.323
972.44
972.57
972.711
972.863
973.026
973.198
973.381
973.572
973.773
973.981
974.197
974.419
974.648
974.883
975.124
975.369
975.618
975.871
976.128
976.386
976.647
976.909
977.172
977.435
977.698
977.96
978.22
978.478
978.733
978.984
979.232
979.475
979.713
979.946
980.172
980.393
980.606
980.812
981.01
981.2
981.382
981.555
981.719
981.874
982.02
982.157
982.283
982.4
982.507
982.605
982.692
982.77
982.837
982.895
982.943
982.98
983.007
983.024
983.03
983.025
983.009
982.982
982.943
982.891
982.828
982.751
982.662
982.559
982.443
982.314
982.172
982.018
981.852
981.676
981.49
981.296
981.094
980.888
980.679
980.469
980.261
980.057
979.859
979.671
979.495
979.333
979.189
979.065
978.963
978.885
978.833
978.809
978.814
978.848
978.913
979.008
979.134
979.289
979.473
979.685
979.923
980.185
980.47
980.775
981.098
981.436
981.788
982.15
982.521
982.898
983.279
983.662
984.043
984.423
984.798
985.168
985.531
985.885
986.23
986.565
986.89
987.203
987.505
987.795
988.074
988.341
988.597
988.842
989.077
989.302
989.517
989.724
989.924
990.117
990.303
990.484
990.66
990.832
991.001
991.166
991.33
991.491
991.65
991.808
991.965
992.119
992.272
992.423
992.572
992.718
992.861
993
993.135
993.264
993.387
993.504
993.613
993.713
993.803
993.883
993.952
994.009
994.051
994.079
994.092
994.089
994.066
994.024
993.963
993.877
993.762
993.626
993.464
993.247
992.988
992.73
992.384
991.873
991.401
990.985
989.994
988.675
988.194
986.978
982.581
978.584
976.44
1022.26
1027.04
1022.35
1018.03
1018.25
1017.94
1016.53
1015.55
1015.33
1014.95
1014.39
1013.98
1013.7
1013.39
1013.06
1012.77
1012.5
1012.23
1011.96
1011.7
1011.44
1011.18
1010.91
1010.65
1010.38
1010.1
1009.82
1009.54
1009.24
1008.94
1008.63
1008.31
1007.98
1007.64
1007.28
1006.92
1006.54
1006.15
1005.74
1005.32
1004.89
1004.44
1003.97
1003.49
1002.99
1002.48
1001.94
1001.39
1000.82
1000.24
999.637
999.018
998.381
997.728
997.059
996.375
995.676
994.964
994.239
993.503
992.756
992.002
991.24
990.473
989.702
988.929
988.157
987.387
986.62
985.86
985.108
984.366
983.636
982.919
982.218
981.534
980.868
980.223
979.599
978.997
978.418
977.864
977.334
976.83
976.351
975.898
975.471
975.071
974.696
974.347
974.024
973.726
973.453
973.204
972.98
972.778
972.6
972.444
972.309
972.196
972.103
972.03
971.976
971.94
971.922
971.922
971.938
971.971
972.018
972.081
972.158
972.249
972.354
972.471
972.6
972.741
972.892
973.055
973.228
973.41
973.601
973.8
974.008
974.223
974.445
974.674
974.909
975.149
975.393
975.643
975.895
976.151
976.41
976.67
976.932
977.195
977.458
977.72
977.982
978.242
978.499
978.754
979.006
979.254
979.497
979.735
979.968
980.195
980.415
980.629
980.835
981.033
981.223
981.405
981.578
981.742
981.898
982.044
982.18
982.306
982.423
982.53
982.627
982.714
982.792
982.859
982.916
982.963
983
983.027
983.044
983.05
983.045
983.029
983.002
982.964
982.913
982.85
982.775
982.686
982.585
982.47
982.343
982.202
982.049
981.885
981.709
981.524
981.33
981.129
980.923
980.713
980.502
980.292
980.086
979.886
979.695
979.515
979.351
979.203
979.075
978.968
978.886
978.83
978.801
978.802
978.832
978.893
978.985
979.107
979.26
979.441
979.65
979.886
980.146
980.429
980.733
981.056
981.394
981.745
982.108
982.479
982.857
983.238
983.622
984.004
984.385
984.762
985.133
985.497
985.852
986.199
986.536
986.862
987.177
987.48
987.771
988.051
988.32
988.576
988.823
989.058
989.283
989.5
989.707
989.907
990.1
990.286
990.467
990.643
990.815
990.984
991.149
991.312
991.473
991.632
991.789
991.945
992.1
992.253
992.403
992.552
992.698
992.841
992.98
993.114
993.243
993.367
993.483
993.592
993.692
993.783
993.863
993.932
993.988
994.031
994.059
994.07
994.067
994.044
993.999
993.936
993.853
993.736
993.589
993.433
993.231
992.939
992.659
992.403
991.879
991.201
990.967
990.4
988.414
987.582
988.578
984.06
978.12
982.395
1021.98
1020.69
1020.14
1021.29
1018.76
1016.64
1016.57
1016.46
1015.53
1014.8
1014.54
1014.24
1013.81
1013.44
1013.17
1012.88
1012.58
1012.3
1012.04
1011.77
1011.5
1011.23
1010.97
1010.7
1010.42
1010.14
1009.86
1009.57
1009.27
1008.97
1008.66
1008.33
1008
1007.66
1007.3
1006.94
1006.56
1006.16
1005.76
1005.33
1004.9
1004.44
1003.98
1003.49
1002.99
1002.47
1001.94
1001.39
1000.82
1000.23
999.623
999.001
998.362
997.706
997.035
996.347
995.646
994.93
994.203
993.463
992.715
991.956
991.192
990.422
989.649
988.874
988.1
987.327
986.56
985.798
985.045
984.302
983.572
982.855
982.155
981.471
980.807
980.163
979.541
978.941
978.364
977.812
977.285
976.784
976.308
975.858
975.435
975.037
974.666
974.32
974
973.705
973.435
973.189
972.967
972.769
972.593
972.439
972.307
972.195
972.104
972.033
971.98
971.946
971.93
971.931
971.949
971.982
972.031
972.095
972.173
972.264
972.37
972.487
972.617
972.758
972.911
973.073
973.246
973.429
973.62
973.82
974.028
974.243
974.466
974.695
974.929
975.169
975.414
975.663
975.916
976.172
976.431
976.692
976.954
977.217
977.48
977.743
978.005
978.265
978.523
978.779
979.031
979.279
979.523
979.761
979.995
980.222
980.443
980.657
980.863
981.062
981.253
981.435
981.608
981.773
981.928
982.074
982.21
982.336
982.453
982.56
982.657
982.744
982.82
982.887
982.945
982.992
983.028
983.055
983.072
983.078
983.073
983.058
983.031
982.993
982.944
982.882
982.807
982.72
982.619
982.506
982.379
982.239
982.087
981.922
981.746
981.56
981.365
981.162
980.953
980.74
980.525
980.311
980.101
979.896
979.699
979.514
979.344
979.19
979.056
978.943
978.856
978.794
978.761
978.757
978.783
978.84
978.929
979.048
979.198
979.378
979.587
979.822
980.083
980.366
980.671
980.995
981.334
981.688
982.053
982.426
982.806
983.19
983.576
983.961
984.345
984.724
985.097
985.464
985.822
986.171
986.51
986.837
987.154
987.459
987.752
988.033
988.302
988.56
988.806
989.042
989.268
989.484
989.691
989.891
990.083
990.269
990.449
990.625
990.796
990.964
991.129
991.292
991.452
991.611
991.768
991.924
992.078
992.231
992.382
992.53
992.677
992.82
992.96
993.095
993.225
993.349
993.467
993.576
993.678
993.77
993.851
993.92
993.977
994.021
994.05
994.063
994.059
994.038
993.997
993.932
993.846
993.742
993.6
993.417
993.231
993.012
992.667
992.305
992.046
991.52
990.636
990.246
989.902
987.952
986.304
986.454
985.489
983.483
1021.97
1019.77
1019.68
1019.55
1018.05
1017.6
1017.02
1016.14
1015.5
1015.18
1014.77
1014.29
1013.91
1013.61
1013.3
1012.98
1012.68
1012.41
1012.13
1011.85
1011.58
1011.31
1011.04
1010.77
1010.49
1010.21
1009.92
1009.63
1009.33
1009.02
1008.71
1008.38
1008.05
1007.7
1007.35
1006.98
1006.6
1006.2
1005.79
1005.37
1004.93
1004.47
1004
1003.52
1003.01
1002.49
1001.95
1001.4
1000.82
1000.23
999.624
998.997
998.354
997.693
997.017
996.325
995.618
994.897
994.164
993.419
992.664
991.901
991.131
990.356
989.577
988.797
988.018
987.242
986.47
985.705
984.948
984.203
983.47
982.752
982.051
981.367
980.703
980.059
979.438
978.84
978.265
977.716
977.192
976.693
976.221
975.775
975.355
974.961
974.594
974.252
973.936
973.646
973.379
973.138
972.92
972.725
972.553
972.403
972.274
972.166
972.078
972.009
971.96
971.928
971.914
971.918
971.938
971.973
972.024
972.09
972.17
972.263
972.37
972.489
972.62
972.763
972.917
973.081
973.255
973.439
973.631
973.832
974.041
974.257
974.48
974.71
974.945
975.186
975.432
975.682
975.936
976.193
976.452
976.713
976.976
977.24
977.504
977.767
978.03
978.291
978.55
978.806
979.058
979.308
979.552
979.791
980.025
980.253
980.475
980.689
980.896
981.095
981.286
981.469
981.643
981.808
981.963
982.109
982.246
982.372
982.489
982.596
982.693
982.779
982.856
982.923
982.98
983.026
983.063
983.09
983.106
983.112
983.108
983.093
983.067
983.03
982.981
982.92
982.846
982.759
982.659
982.546
982.419
982.279
982.126
981.96
981.782
981.593
981.395
981.188
980.975
980.757
980.536
980.316
980.099
979.886
979.682
979.49
979.312
979.15
979.009
978.889
978.795
978.727
978.688
978.68
978.702
978.756
978.842
978.96
979.109
979.289
979.498
979.734
979.996
980.282
980.59
980.917
981.26
981.617
981.986
982.363
982.747
983.135
983.524
983.914
984.301
984.684
985.061
985.43
985.792
986.143
986.484
986.814
987.133
987.439
987.734
988.016
988.286
988.544
988.791
989.027
989.252
989.468
989.675
989.874
990.065
990.25
990.43
990.604
990.775
990.942
991.106
991.268
991.428
991.586
991.743
991.899
992.054
992.207
992.359
992.508
992.656
992.8
992.941
993.078
993.209
993.335
993.454
993.566
993.669
993.763
993.846
993.918
993.978
994.024
994.055
994.072
994.071
994.051
994.015
993.957
993.871
993.768
993.647
993.475
993.264
993.076
992.821
992.398
992.064
991.846
991.093
990.178
990.218
989.493
987.213
986.993
987.129
985.203
1019.88
1019.88
1019.44
1017.95
1018.06
1017.88
1016.69
1016.03
1015.84
1015.4
1014.79
1014.4
1014.12
1013.77
1013.41
1013.1
1012.83
1012.53
1012.24
1011.97
1011.69
1011.42
1011.14
1010.86
1010.59
1010.3
1010.01
1009.72
1009.42
1009.11
1008.79
1008.46
1008.12
1007.78
1007.42
1007.05
1006.66
1006.26
1005.85
1005.43
1004.98
1004.53
1004.05
1003.56
1003.06
1002.53
1001.99
1001.43
1000.85
1000.25
999.638
999.006
998.356
997.689
997.005
996.306
995.591
994.863
994.121
993.368
992.605
991.833
991.055
990.271
989.485
988.697
987.91
987.127
986.348
985.577
984.815
984.064
983.327
982.606
981.902
981.216
980.551
979.907
979.287
978.689
978.117
977.569
977.048
976.553
976.085
975.643
975.228
974.839
974.477
974.14
973.83
973.544
973.283
973.047
972.834
972.644
972.477
972.332
972.207
972.104
972.02
971.956
971.911
971.883
971.873
971.88
971.904
971.943
971.997
972.065
972.148
972.245
972.354
972.476
972.61
972.755
972.911
973.077
973.253
973.439
973.634
973.836
974.047
974.265
974.49
974.721
974.958
975.2
975.447
975.699
975.954
976.212
976.472
976.735
976.999
977.263
977.528
977.793
978.056
978.318
978.578
978.835
979.088
979.338
979.583
979.823
980.058
980.287
980.509
980.724
980.932
981.132
981.323
981.506
981.681
981.846
982.002
982.148
982.285
982.412
982.529
982.636
982.732
982.819
982.896
982.962
983.019
983.066
983.102
983.129
983.145
983.152
983.148
983.133
983.107
983.07
983.021
982.961
982.887
982.8
982.7
982.586
982.459
982.318
982.163
981.994
981.813
981.62
981.417
981.205
980.985
980.76
980.532
980.304
980.078
979.857
979.643
979.441
979.254
979.083
978.934
978.807
978.705
978.631
978.587
978.574
978.592
978.644
978.728
978.845
978.995
979.176
979.386
979.625
979.891
980.181
980.492
980.823
981.172
981.534
981.907
982.29
982.679
983.072
983.467
983.861
984.253
984.64
985.021
985.394
985.759
986.114
986.458
986.79
987.111
987.419
987.715
987.998
988.269
988.527
988.774
989.01
989.234
989.45
989.656
989.854
990.044
990.228
990.407
990.58
990.749
990.916
991.079
991.241
991.4
991.559
991.716
991.872
992.027
992.182
992.334
992.485
992.635
992.781
992.924
993.063
993.197
993.325
993.447
993.562
993.668
993.765
993.852
993.927
993.99
994.04
994.076
994.096
994.101
994.087
994.053
994.005
993.934
993.83
993.71
993.583
993.392
993.148
992.962
992.72
992.236
991.863
991.734
991.007
989.997
989.923
989.582
988.265
987.452
987.429
1018.83
1019.2
1018.7
1018.04
1017.83
1017.06
1016.67
1016.4
1015.82
1015.26
1014.95
1014.64
1014.23
1013.86
1013.57
1013.27
1012.96
1012.66
1012.38
1012.11
1011.82
1011.55
1011.27
1010.99
1010.71
1010.42
1010.13
1009.83
1009.53
1009.22
1008.9
1008.57
1008.23
1007.88
1007.52
1007.14
1006.76
1006.36
1005.94
1005.51
1005.07
1004.61
1004.13
1003.63
1003.12
1002.59
1002.04
1001.48
1000.89
1000.29
999.667
999.027
998.369
997.693
997
996.291
995.566
994.826
994.074
993.31
992.536
991.753
990.963
990.168
989.37
988.571
987.774
986.98
986.193
985.413
984.643
983.885
983.143
982.416
981.708
981.019
980.352
979.707
979.086
978.489
977.918
977.373
976.855
976.364
975.9
975.463
975.053
974.67
974.313
973.984
973.679
973.4
973.146
972.916
972.709
972.526
972.365
972.226
972.108
972.01
971.932
971.873
971.833
971.811
971.806
971.817
971.845
971.889
971.947
972.02
972.108
972.208
972.321
972.447
972.585
972.733
972.893
973.062
973.242
973.431
973.628
973.834
974.047
974.268
974.495
974.729
974.968
975.213
975.461
975.715
975.972
976.231
976.493
976.757
977.022
977.288
977.554
977.819
978.084
978.347
978.607
978.865
979.119
979.37
979.615
979.856
980.091
980.32
980.543
980.759
980.967
981.168
981.36
981.544
981.718
981.884
982.04
982.187
982.324
982.451
982.569
982.675
982.773
982.859
982.936
983.003
983.059
983.106
983.143
983.169
983.186
983.192
983.188
983.173
983.148
983.111
983.062
983.001
982.927
982.84
982.739
982.624
982.494
982.351
982.193
982.021
981.836
981.638
981.428
981.209
980.982
980.748
980.511
980.273
980.037
979.805
979.582
979.37
979.173
978.993
978.835
978.7
978.591
978.511
978.461
978.443
978.459
978.508
978.592
978.709
978.86
979.043
979.257
979.499
979.769
980.064
980.381
980.718
981.071
981.44
981.82
982.209
982.603
983.002
983.403
983.802
984.199
984.591
984.977
985.354
985.722
986.081
986.428
986.763
987.085
987.395
987.692
987.976
988.248
988.506
988.753
988.988
989.213
989.427
989.632
989.829
990.018
990.201
990.378
990.551
990.719
990.885
991.048
991.209
991.369
991.528
991.685
991.843
991.999
992.155
992.309
992.462
992.614
992.763
992.909
993.051
993.188
993.32
993.446
993.564
993.675
993.776
993.868
993.948
994.016
994.071
994.113
994.139
994.151
994.146
994.122
994.077
994.022
993.941
993.823
993.7
993.573
993.361
993.113
992.962
992.697
992.182
991.932
991.803
990.996
990.359
990.334
989.667
988.971
988.857
1018.56
1018.23
1017.98
1018.08
1017.43
1016.82
1016.71
1016.25
1015.72
1015.4
1015.09
1014.68
1014.31
1014.02
1013.72
1013.4
1013.1
1012.82
1012.54
1012.25
1011.97
1011.69
1011.42
1011.13
1010.85
1010.56
1010.27
1009.97
1009.66
1009.35
1009.03
1008.7
1008.36
1008.01
1007.64
1007.27
1006.88
1006.47
1006.06
1005.62
1005.17
1004.71
1004.23
1003.73
1003.21
1002.67
1002.12
1001.55
1000.95
1000.34
999.711
999.061
998.393
997.706
997.001
996.279
995.542
994.789
994.023
993.245
992.457
991.659
990.855
990.046
989.234
988.421
987.611
986.804
986.004
985.213
984.433
983.667
982.916
982.183
981.469
980.776
980.105
979.458
978.836
978.24
977.671
977.128
976.613
976.126
975.667
975.236
974.832
974.455
974.106
973.783
973.486
973.215
972.968
972.745
972.546
972.371
972.217
972.085
971.974
971.883
971.812
971.76
971.726
971.71
971.711
971.729
971.763
971.812
971.877
971.955
972.048
972.153
972.272
972.403
972.545
972.698
972.863
973.037
973.221
973.413
973.615
973.824
974.042
974.266
974.497
974.734
974.976
975.223
975.475
975.731
975.99
976.251
976.515
976.781
977.047
977.314
977.581
977.848
978.113
978.377
978.638
978.896
979.151
979.401
979.647
979.888
980.124
980.353
980.576
980.792
981
981.201
981.393
981.577
981.752
981.918
982.074
982.221
982.359
982.486
982.604
982.711
982.808
982.895
982.973
983.039
983.096
983.143
983.18
983.206
983.223
983.229
983.225
983.21
983.184
983.147
983.097
983.036
982.961
982.873
982.77
982.653
982.521
982.374
982.213
982.036
981.845
981.641
981.425
981.198
980.962
980.719
980.472
980.223
979.976
979.734
979.5
979.278
979.07
978.881
978.714
978.571
978.455
978.369
978.315
978.294
978.307
978.355
978.439
978.557
978.71
978.896
979.113
979.36
979.635
979.935
980.258
980.602
980.962
981.337
981.724
982.119
982.521
982.926
983.332
983.738
984.14
984.537
984.927
985.309
985.681
986.043
986.393
986.73
987.055
987.366
987.664
987.949
988.221
988.48
988.726
988.961
989.184
989.398
989.602
989.797
989.985
990.167
990.343
990.515
990.683
990.848
991.011
991.172
991.333
991.492
991.651
991.81
991.968
992.126
992.283
992.439
992.594
992.746
992.896
993.042
993.183
993.32
993.45
993.574
993.689
993.796
993.893
993.98
994.055
994.117
994.166
994.202
994.221
994.225
994.216
994.184
994.133
994.077
993.995
993.868
993.749
993.641
993.424
993.171
993.07
992.84
992.331
992.119
992.053
991.481
990.926
990.832
990.629
990.001
1018.09
1017.87
1017.72
1017.51
1017.1
1016.93
1016.5
1016.03
1015.8
1015.48
1015.06
1014.73
1014.46
1014.14
1013.81
1013.52
1013.25
1012.97
1012.68
1012.4
1012.13
1011.85
1011.57
1011.29
1011.01
1010.72
1010.43
1010.13
1009.82
1009.51
1009.18
1008.85
1008.51
1008.16
1007.79
1007.41
1007.02
1006.61
1006.19
1005.76
1005.31
1004.84
1004.35
1003.84
1003.32
1002.78
1002.22
1001.63
1001.03
1000.41
999.77
999.108
998.427
997.727
997.009
996.273
995.52
994.752
993.97
993.175
992.369
991.554
990.732
989.906
989.077
988.248
987.421
986.599
985.785
984.981
984.188
983.411
982.65
981.908
981.187
980.489
979.814
979.164
978.541
977.945
977.377
976.837
976.326
975.843
975.389
974.964
974.567
974.198
973.856
973.542
973.253
972.99
972.752
972.538
972.348
972.181
972.035
971.911
971.808
971.726
971.663
971.618
971.592
971.583
971.592
971.616
971.657
971.713
971.784
971.87
971.969
972.081
972.205
972.342
972.491
972.65
972.82
973
973.19
973.388
973.594
973.809
974.031
974.26
974.496
974.736
974.982
975.233
975.488
975.747
976.008
976.273
976.539
976.806
977.074
977.343
977.611
977.878
978.144
978.408
978.669
978.927
979.182
979.432
979.678
979.918
980.153
980.382
980.604
980.82
981.028
981.228
981.42
981.603
981.778
981.943
982.1
982.246
982.384
982.511
982.629
982.737
982.834
982.922
982.999
983.067
983.124
983.171
983.208
983.234
983.251
983.257
983.253
983.238
983.211
983.173
983.123
983.06
982.984
982.893
982.789
982.669
982.534
982.384
982.218
982.036
981.839
981.628
981.404
981.169
980.924
980.671
980.414
980.155
979.897
979.645
979.4
979.167
978.95
978.752
978.576
978.426
978.304
978.213
978.154
978.13
978.142
978.189
978.273
978.393
978.549
978.738
978.96
979.212
979.492
979.799
980.128
980.478
980.845
981.227
981.621
982.024
982.432
982.843
983.256
983.667
984.075
984.477
984.872
985.258
985.634
985.999
986.351
986.691
987.018
987.33
987.629
987.915
988.187
988.445
988.691
988.925
989.148
989.36
989.563
989.757
989.944
990.125
990.3
990.471
990.639
990.804
990.967
991.129
991.291
991.452
991.612
991.773
991.934
992.095
992.256
992.416
992.574
992.73
992.885
993.036
993.183
993.325
993.461
993.59
993.713
993.826
993.93
994.024
994.107
994.178
994.236
994.282
994.314
994.329
994.332
994.322
994.288
994.237
994.188
994.111
993.986
993.891
993.805
993.594
993.391
993.341
993.114
992.735
992.625
992.487
992.099
991.884
991.72
991.357
1017.56
1017.57
1017.45
1017.09
1016.95
1016.75
1016.31
1016.05
1015.78
1015.41
1015.1
1014.83
1014.52
1014.21
1013.93
1013.66
1013.38
1013.09
1012.83
1012.56
1012.28
1012.01
1011.73
1011.46
1011.17
1010.89
1010.59
1010.3
1009.99
1009.68
1009.35
1009.02
1008.68
1008.32
1007.96
1007.58
1007.18
1006.78
1006.35
1005.91
1005.46
1004.98
1004.49
1003.98
1003.45
1002.9
1002.33
1001.74
1001.13
1000.5
999.842
999.168
998.473
997.758
997.024
996.271
995.501
994.714
993.913
993.099
992.273
991.438
990.596
989.749
988.901
988.052
987.207
986.367
985.536
984.715
983.908
983.118
982.346
981.594
980.865
980.159
979.48
978.827
978.202
977.606
977.039
976.502
975.995
975.518
975.07
974.652
974.262
973.901
973.568
973.262
972.983
972.73
972.501
972.297
972.116
971.958
971.822
971.708
971.614
971.54
971.486
971.45
971.432
971.432
971.448
971.481
971.529
971.593
971.672
971.765
971.871
971.991
972.123
972.267
972.423
972.589
972.766
972.953
973.149
973.354
973.567
973.788
974.016
974.25
974.491
974.737
974.988
975.243
975.502
975.764
976.029
976.296
976.564
976.834
977.104
977.374
977.643
977.91
978.176
978.44
978.701
978.959
979.213
979.462
979.707
979.946
980.18
980.407
980.627
980.841
981.048
981.247
981.437
981.619
981.792
981.957
982.113
982.259
982.396
982.522
982.64
982.747
982.845
982.933
983.011
983.078
983.136
983.183
983.22
983.247
983.264
983.27
983.266
983.25
983.223
983.184
983.133
983.069
982.99
982.898
982.791
982.668
982.53
982.375
982.204
982.017
981.814
981.596
981.364
981.121
980.867
980.605
980.338
980.069
979.801
979.538
979.283
979.041
978.815
978.609
978.425
978.268
978.141
978.045
977.983
977.957
977.968
978.016
978.101
978.223
978.381
978.575
978.801
979.058
979.345
979.657
979.994
980.35
980.725
981.114
981.514
981.924
982.339
982.757
983.175
983.592
984.005
984.412
984.811
985.201
985.58
985.948
986.303
986.645
986.973
987.287
987.586
987.872
988.143
988.402
988.647
988.88
989.101
989.312
989.514
989.707
989.893
990.073
990.248
990.419
990.587
990.752
990.916
991.079
991.242
991.405
991.569
991.733
991.897
992.062
992.227
992.391
992.555
992.716
992.876
993.033
993.186
993.335
993.478
993.614
993.744
993.865
993.978
994.081
994.173
994.254
994.324
994.38
994.426
994.458
994.473
994.479
994.475
994.445
994.403
994.373
994.311
994.2
994.141
994.096
993.914
993.768
993.772
993.626
993.363
993.311
993.274
993.049
992.885
992.743
1017.26
1017.24
1017.11
1016.95
1016.78
1016.46
1016.25
1016.04
1015.68
1015.4
1015.16
1014.87
1014.56
1014.3
1014.04
1013.76
1013.49
1013.23
1012.97
1012.7
1012.43
1012.17
1011.9
1011.62
1011.34
1011.06
1010.77
1010.47
1010.17
1009.86
1009.54
1009.2
1008.86
1008.51
1008.14
1007.76
1007.36
1006.95
1006.53
1006.09
1005.63
1005.15
1004.65
1004.14
1003.6
1003.04
1002.46
1001.86
1001.24
1000.59
999.927
999.239
998.529
997.798
997.046
996.274
995.484
994.677
993.855
993.018
992.17
991.312
990.447
989.577
988.706
987.835
986.968
986.108
985.257
984.418
983.595
982.789
982.004
981.24
980.502
979.789
979.104
978.448
977.821
977.225
976.66
976.126
975.623
975.151
974.711
974.3
973.919
973.567
973.244
972.948
972.68
972.436
972.218
972.025
971.855
971.707
971.582
971.477
971.393
971.329
971.284
971.257
971.248
971.257
971.282
971.324
971.381
971.453
971.541
971.642
971.757
971.885
972.025
972.178
972.341
972.516
972.701
972.896
973.1
973.313
973.533
973.761
973.996
974.237
974.484
974.736
974.992
975.253
975.516
975.782
976.051
976.322
976.593
976.865
977.137
977.408
977.678
977.946
978.212
978.475
978.736
978.992
979.245
979.492
979.734
979.971
980.202
980.427
980.645
980.856
981.059
981.255
981.443
981.623
981.794
981.956
982.11
982.254
982.389
982.515
982.631
982.738
982.835
982.923
983
983.068
983.125
983.173
983.211
983.239
983.256
983.262
983.257
983.241
983.214
983.174
983.122
983.056
982.976
982.881
982.771
982.645
982.503
982.344
982.169
981.976
981.767
981.542
981.304
981.052
980.79
980.52
980.244
979.966
979.689
979.417
979.154
978.904
978.67
978.456
978.266
978.104
977.972
977.873
977.809
977.781
977.791
977.84
977.927
978.051
978.213
978.41
978.641
978.904
979.196
979.515
979.858
980.221
980.603
980.998
981.405
981.821
982.243
982.667
983.091
983.513
983.931
984.342
984.745
985.139
985.521
985.891
986.248
986.592
986.921
987.235
987.535
987.82
988.091
988.348
988.593
988.824
989.044
989.254
989.454
989.647
989.831
990.011
990.185
990.356
990.525
990.691
990.856
991.021
991.187
991.353
991.52
991.688
991.856
992.026
992.196
992.366
992.535
992.703
992.869
993.033
993.193
993.349
993.5
993.645
993.783
993.914
994.036
994.149
994.252
994.345
994.427
994.498
994.557
994.607
994.642
994.663
994.68
994.689
994.672
994.65
994.649
994.612
994.537
994.531
994.522
994.409
994.357
994.396
994.33
994.251
994.259
994.236
994.224
994.107
1017.04
1016.95
1016.85
1016.78
1016.57
1016.34
1016.18
1015.91
1015.65
1015.43
1015.16
1014.88
1014.64
1014.39
1014.12
1013.86
1013.61
1013.36
1013.09
1012.84
1012.58
1012.32
1012.05
1011.79
1011.51
1011.23
1010.95
1010.65
1010.35
1010.04
1009.72
1009.39
1009.05
1008.7
1008.33
1007.95
1007.56
1007.15
1006.72
1006.27
1005.81
1005.33
1004.83
1004.3
1003.76
1003.2
1002.61
1002
1001.36
1000.71
1000.03
999.321
998.595
997.845
997.074
996.282
995.47
994.641
993.794
992.933
992.059
991.176
990.285
989.389
988.492
987.596
986.705
985.821
984.948
984.089
983.247
982.424
981.624
980.849
980.099
979.378
978.687
978.027
977.399
976.803
976.239
975.709
975.211
974.746
974.313
973.911
973.54
973.199
972.886
972.601
972.344
972.113
971.907
971.725
971.566
971.43
971.315
971.221
971.148
971.094
971.059
971.042
971.043
971.062
971.096
971.147
971.214
971.296
971.392
971.502
971.626
971.763
971.913
972.075
972.248
972.431
972.626
972.829
973.042
973.263
973.492
973.728
973.971
974.22
974.474
974.733
974.996
975.262
975.531
975.803
976.076
976.35
976.625
976.9
977.173
977.446
977.717
977.985
978.251
978.514
978.773
979.027
979.277
979.522
979.761
979.995
980.222
980.443
980.657
980.863
981.062
981.254
981.438
981.613
981.78
981.939
982.089
982.23
982.362
982.486
982.6
982.705
982.801
982.887
982.964
983.031
983.089
983.136
983.174
983.202
983.219
983.226
983.221
983.205
983.177
983.136
983.083
983.016
982.934
982.837
982.725
982.596
982.451
982.288
982.108
981.91
981.696
981.466
981.221
980.963
980.695
980.417
980.134
979.849
979.564
979.285
979.015
978.758
978.518
978.299
978.104
977.937
977.802
977.7
977.635
977.607
977.617
977.667
977.755
977.883
978.048
978.249
978.485
978.753
979.051
979.376
979.725
980.095
980.482
980.885
981.298
981.72
982.147
982.576
983.006
983.433
983.855
984.27
984.676
985.072
985.457
985.829
986.187
986.531
986.861
987.176
987.475
987.759
988.029
988.285
988.528
988.758
988.977
989.185
989.384
989.575
989.758
989.937
990.112
990.283
990.452
990.62
990.787
990.955
991.124
991.293
991.464
991.637
991.811
991.986
992.162
992.338
992.514
992.689
992.863
993.034
993.203
993.367
993.527
993.681
993.829
993.97
994.103
994.228
994.343
994.448
994.545
994.632
994.707
994.773
994.832
994.879
994.912
994.948
994.979
994.984
994.995
995.035
995.036
995.015
995.07
995.122
995.097
995.139
995.25
995.297
995.332
995.431
995.548
995.523
1016.81
1016.76
1016.69
1016.56
1016.4
1016.27
1016.06
1015.82
1015.64
1015.41
1015.15
1014.93
1014.69
1014.44
1014.2
1013.96
1013.72
1013.47
1013.22
1012.98
1012.72
1012.47
1012.21
1011.95
1011.68
1011.41
1011.13
1010.84
1010.54
1010.23
1009.92
1009.59
1009.25
1008.9
1008.53
1008.15
1007.76
1007.35
1006.92
1006.47
1006.01
1005.52
1005.02
1004.49
1003.94
1003.36
1002.77
1002.15
1001.5
1000.83
1000.13
999.414
998.669
997.901
997.109
996.294
995.459
994.604
993.732
992.843
991.942
991.03
990.11
989.185
988.259
987.335
986.416
985.507
984.609
983.727
982.864
982.023
981.206
980.416
979.656
978.926
978.229
977.564
976.934
976.339
975.779
975.253
974.762
974.304
973.88
973.488
973.128
972.798
972.497
972.225
971.98
971.762
971.568
971.399
971.252
971.128
971.025
970.943
970.881
970.838
970.814
970.807
970.818
970.847
970.892
970.953
971.029
971.121
971.227
971.347
971.481
971.628
971.788
971.959
972.142
972.336
972.54
972.753
972.975
973.206
973.445
973.69
973.942
974.199
974.462
974.728
974.999
975.272
975.548
975.825
976.103
976.382
976.66
976.938
977.214
977.488
977.76
978.029
978.294
978.556
978.813
979.065
979.312
979.553
979.788
980.017
980.24
980.455
980.664
980.865
981.058
981.243
981.421
981.591
981.752
981.905
982.05
982.186
982.314
982.433
982.544
982.646
982.738
982.822
982.897
982.963
983.02
983.067
983.104
983.132
983.149
983.156
983.151
983.135
983.107
983.066
983.012
982.944
982.861
982.763
982.649
982.517