# vtk DataFile Version 2.0
LBE mesh
ASCII
DATASET STRUCTURED_POINTS
DIMENSIONS 300 100 1
ASPECT_RATIO 1 1 1
ORIGIN 0 0 0
POINT_DATA 30000
SCALARS rho double 1
LOOKUP_TABLE default
1046.84
1015.15
1014.44
1020.93
1019.1
1015.2
1015.01
1015.53
1014.76
1013.98
1013.82
1013.66
1013.3
1013
1012.81
1012.6
1012.36
1012.15
1011.96
1011.76
1011.55
1011.35
1011.15
1010.95
1010.74
1010.53
1010.31
1010.09
1009.86
1009.63
1009.39
1009.14
1008.88
1008.61
1008.33
1008.05
1007.75
1007.43
1007.11
1006.77
1006.42
1006.06
1005.68
1005.28
1004.87
1004.44
1004
1003.54
1003.06
1002.57
1002.06
1001.53
1000.98
1000.42
999.841
999.247
998.639
998.016
997.38
996.733
996.074
995.406
994.73
994.047
993.36
992.669
991.976
991.284
990.594
989.907
989.226
988.553
987.889
987.236
986.594
985.967
985.355
984.759
984.18
983.62
983.079
982.558
982.058
981.578
981.121
980.685
980.27
979.877
979.506
979.156
978.827
978.518
978.231
977.962
977.714
977.484
977.272
977.078
976.901
976.741
976.596
976.466
976.351
976.25
976.162
976.086
976.023
975.971
975.93
975.898
975.876
975.863
975.858
975.861
975.871
975.887
975.91
975.938
975.97
976.007
976.048
976.092
976.139
976.188
976.24
976.292
976.346
976.4
976.454
976.507
976.56
976.611
976.661
976.709
976.754
976.797
976.837
976.873
976.906
976.935
976.96
976.98
976.995
977.006
977.012
977.012
977.007
976.997
976.98
976.958
976.929
976.895
976.854
976.806
976.751
976.69
976.622
976.546
976.463
976.373
976.275
976.17
976.057
975.937
975.809
975.674
975.534
975.387
975.236
975.08
974.921
974.76
974.599
974.439
974.282
974.13
973.984
973.846
973.72
973.605
973.506
973.422
973.357
973.311
973.286
973.283
973.304
973.348
973.417
973.51
973.627
973.767
973.931
974.116
974.321
974.547
974.789
975.048
975.32
975.605
975.9
976.204
976.513
976.826
977.142
977.458
977.774
978.087
978.395
978.699
978.995
979.284
979.565
979.837
980.099
980.351
980.593
980.824
981.044
981.253
981.451
981.639
981.817
981.984
982.141
982.289
982.428
982.559
982.681
982.794
982.901
983
983.093
983.179
983.259
983.333
983.4
983.463
983.519
983.57
983.614
983.653
983.686
983.712
983.731
983.744
983.749
983.746
983.735
983.715
983.686
983.648
983.599
983.541
983.472
983.391
983.3
983.196
983.082
982.955
982.817
982.667
982.505
982.332
982.147
981.952
981.747
981.531
981.306
981.073
980.83
980.58
980.323
980.06
979.789
979.514
979.233
978.947
978.656
978.36
978.06
977.749
977.43
977.11
976.773
976.403
976.035
975.672
975.204
974.665
974.274
973.759
972.676
971.914
971.971
969.966
966.172
968.139
968.906
945.898
1029.74
1026.2
1022.12
1016.92
1017.11
1017.28
1016.11
1014.96
1014.73
1014.49
1014.02
1013.63
1013.4
1013.16
1012.88
1012.64
1012.43
1012.22
1012
1011.79
1011.59
1011.38
1011.18
1010.97
1010.76
1010.54
1010.32
1010.1
1009.87
1009.63
1009.38
1009.13
1008.87
1008.6
1008.32
1008.03
1007.73
1007.41
1007.09
1006.75
1006.39
1006.03
1005.64
1005.25
1004.83
1004.41
1003.96
1003.5
1003.02
1002.52
1002.01
1001.48
1000.94
1000.37
999.794
999.201
998.593
997.971
997.336
996.689
996.031
995.365
994.69
994.009
993.323
992.635
991.944
991.255
990.567
989.883
989.206
988.535
987.874
987.224
986.586
985.962
985.352
984.759
984.184
983.627
983.089
982.571
982.073
981.596
981.141
980.707
980.295
979.904
979.534
979.186
978.858
978.551
978.264
977.997
977.75
977.521
977.309
977.116
976.94
976.779
976.635
976.506
976.391
976.289
976.201
976.126
976.062
976.01
975.968
975.937
975.914
975.901
975.896
975.899
975.908
975.924
975.946
975.974
976.007
976.044
976.084
976.128
976.175
976.224
976.275
976.328
976.381
976.436
976.49
976.543
976.596
976.647
976.697
976.745
976.79
976.833
976.872
976.909
976.941
976.97
976.995
977.015
977.03
977.04
977.046
977.046
977.04
977.029
977.012
976.99
976.961
976.925
976.884
976.835
976.78
976.718
976.65
976.574
976.491
976.4
976.302
976.197
976.085
975.965
975.838
975.704
975.564
975.418
975.267
975.112
974.954
974.794
974.634
974.474
974.318
974.166
974.02
973.882
973.755
973.64
973.539
973.454
973.387
973.339
973.313
973.308
973.326
973.367
973.433
973.522
973.636
973.773
973.933
974.115
974.318
974.54
974.78
975.035
975.305
975.588
975.881
976.182
976.489
976.801
977.116
977.431
977.745
978.057
978.365
978.668
978.965
979.254
979.535
979.807
980.069
980.322
980.564
980.795
981.016
981.226
981.426
981.614
981.793
981.961
982.119
982.268
982.408
982.539
982.661
982.776
982.883
982.983
983.076
983.163
983.243
983.317
983.386
983.448
983.505
983.556
983.601
983.64
983.673
983.699
983.719
983.732
983.738
983.735
983.725
983.706
983.678
983.64
983.593
983.535
983.467
983.388
983.297
983.195
983.081
982.956
982.819
982.67
982.509
982.337
982.153
981.959
981.754
981.539
981.314
981.08
980.838
980.587
980.329
980.064
979.793
979.516
979.232
978.944
978.65
978.349
978.043
977.73
977.408
977.071
976.728
976.372
975.979
975.557
975.146
974.663
974.037
973.452
972.93
971.881
970.543
969.982
968.813
964.692
960.97
959.134
1021.64
1026.45
1021.79
1017.49
1017.75
1017.47
1016.1
1015.16
1014.97
1014.63
1014.12
1013.75
1013.51
1013.24
1012.96
1012.72
1012.5
1012.28
1012.05
1011.84
1011.63
1011.42
1011.21
1011
1010.78
1010.56
1010.34
1010.11
1009.88
1009.64
1009.39
1009.14
1008.87
1008.6
1008.32
1008.02
1007.72
1007.4
1007.08
1006.73
1006.38
1006.01
1005.63
1005.23
1004.81
1004.38
1003.94
1003.47
1002.99
1002.5
1001.98
1001.45
1000.9
1000.34
999.759
999.164
998.555
997.932
997.296
996.649
995.99
995.323
994.648
993.968
993.282
992.593
991.903
991.214
990.528
989.845
989.168
988.499
987.84
987.191
986.555
985.932
985.325
984.734
984.161
983.606
983.071
982.555
982.06
981.586
981.133
980.702
980.292
979.903
979.536
979.189
978.864
978.559
978.274
978.008
977.762
977.535
977.325
977.133
976.958
976.799
976.656
976.527
976.413
976.313
976.226
976.151
976.088
976.036
975.995
975.963
975.941
975.928
975.924
975.927
975.936
975.953
975.975
976.003
976.036
976.073
976.114
976.159
976.206
976.255
976.307
976.36
976.414
976.468
976.523
976.577
976.63
976.681
976.732
976.78
976.826
976.868
976.908
976.945
976.978
977.007
977.031
977.052
977.067
977.077
977.083
977.082
977.077
977.066
977.049
977.025
976.996
976.961
976.919
976.87
976.815
976.753
976.684
976.608
976.524
976.434
976.336
976.231
976.119
975.999
975.872
975.738
975.599
975.453
975.302
975.147
974.988
974.828
974.667
974.506
974.348
974.195
974.047
973.907
973.778
973.66
973.557
973.469
973.398
973.348
973.318
973.309
973.324
973.362
973.425
973.512
973.623
973.757
973.915
974.095
974.296
974.517
974.755
975.01
975.279
975.561
975.853
976.154
976.462
976.774
977.089
977.404
977.719
978.032
978.341
978.644
978.942
979.232
979.514
979.786
980.05
980.303
980.546
980.779
981
981.211
981.411
981.601
981.78
981.949
982.108
982.257
982.397
982.529
982.652
982.767
982.874
982.975
983.068
983.155
983.236
983.311
983.379
983.442
983.499
983.55
983.596
983.636
983.669
983.696
983.717
983.731
983.737
983.735
983.726
983.708
983.681
983.645
983.599
983.543
983.476
983.398
983.309
983.208
983.096
982.972
982.836
982.688
982.528
982.356
982.173
981.979
981.774
981.56
981.335
981.1
980.857
980.606
980.347
980.081
979.808
979.529
979.244
978.953
978.656
978.353
978.042
977.726
977.404
977.062
976.707
976.356
975.972
975.518
975.088
974.685
974.041
973.271
972.917
972.247
970.294
969.433
970.248
966.02
960.591
964.719
1021.36
1020.1
1019.57
1020.76
1018.27
1016.18
1016.15
1016.08
1015.18
1014.49
1014.27
1014.02
1013.62
1013.3
1013.07
1012.83
1012.58
1012.34
1012.13
1011.91
1011.69
1011.48
1011.26
1011.04
1010.83
1010.6
1010.38
1010.15
1009.91
1009.67
1009.42
1009.16
1008.89
1008.62
1008.34
1008.04
1007.73
1007.42
1007.09
1006.74
1006.39
1006.01
1005.63
1005.23
1004.81
1004.38
1003.93
1003.46
1002.98
1002.48
1001.96
1001.43
1000.88
1000.31
999.732
999.134
998.522
997.896
997.257
996.607
995.946
995.276
994.599
993.915
993.227
992.537
991.845
991.154
990.466
989.782
989.104
988.435
987.776
987.127
986.492
985.87
985.264
984.674
984.103
983.55
983.017
982.504
982.011
981.54
981.09
980.661
980.254
979.869
979.504
979.161
978.838
978.536
978.254
977.992
977.748
977.523
977.316
977.126
976.953
976.796
976.655
976.528
976.416
976.317
976.231
976.158
976.096
976.046
976.006
975.976
975.955
975.943
975.939
975.943
975.954
975.971
975.994
976.023
976.056
976.094
976.136
976.181
976.229
976.279
976.332
976.385
976.44
976.495
976.55
976.605
976.659
976.711
976.762
976.811
976.858
976.901
976.942
976.979
977.013
977.043
977.068
977.088
977.104
977.115
977.12
977.12
977.115
977.104
977.087
977.064
977.034
976.999
976.957
976.908
976.853
976.791
976.722
976.646
976.562
976.472
976.374
976.269
976.157
976.037
975.91
975.776
975.635
975.489
975.337
975.181
975.021
974.858
974.695
974.532
974.371
974.214
974.063
973.919
973.786
973.664
973.556
973.464
973.39
973.335
973.3
973.288
973.3
973.335
973.394
973.479
973.588
973.721
973.878
974.057
974.258
974.478
974.717
974.973
975.243
975.526
975.819
976.122
976.431
976.745
977.062
977.379
977.696
978.011
978.321
978.626
978.925
979.217
979.5
979.775
980.04
980.294
980.539
980.772
980.995
981.206
981.407
981.597
981.777
981.946
982.106
982.255
982.396
982.528
982.651
982.766
982.874
982.974
983.068
983.155
983.236
983.311
983.38
983.443
983.501
983.553
983.599
983.639
983.674
983.702
983.724
983.739
983.746
983.746
983.739
983.722
983.697
983.662
983.618
983.563
983.498
983.422
983.334
983.235
983.124
983.001
982.867
982.72
982.561
982.39
982.207
982.014
981.809
981.594
981.369
981.134
980.89
980.638
980.378
980.11
979.836
979.555
979.269
978.976
978.677
978.373
978.063
977.742
977.415
977.084
976.731
976.351
975.982
975.593
975.097
974.597
974.198
973.558
972.597
972.094
971.65
969.743
968.093
968.166
967.31
965.634
1021.35
1019.18
1019.12
1019.02
1017.55
1017.15
1016.6
1015.76
1015.16
1014.88
1014.51
1014.07
1013.73
1013.47
1013.21
1012.93
1012.68
1012.45
1012.22
1012
1011.78
1011.56
1011.34
1011.12
1010.89
1010.67
1010.44
1010.21
1009.97
1009.72
1009.47
1009.21
1008.94
1008.66
1008.38
1008.08
1007.77
1007.45
1007.12
1006.77
1006.41
1006.04
1005.65
1005.25
1004.83
1004.39
1003.94
1003.47
1002.98
1002.48
1001.96
1001.42
1000.87
1000.3
999.709
999.107
998.49
997.859
997.215
996.559
995.893
995.218
994.535
993.847
993.154
992.459
991.763
991.068
990.376
989.689
989.009
988.337
987.675
987.025
986.389
985.767
985.161
984.572
984.002
983.451
982.92
982.41
981.92
981.452
981.005
980.58
980.177
979.795
979.435
979.095
978.777
978.479
978.201
977.943
977.703
977.481
977.278
977.092
976.922
976.768
976.63
976.506
976.397
976.3
976.217
976.146
976.087
976.038
976
975.972
975.953
975.942
975.94
975.945
975.957
975.976
976
976.03
976.065
976.104
976.147
976.193
976.242
976.293
976.347
976.401
976.457
976.513
976.569
976.625
976.68
976.733
976.785
976.835
976.883
976.927
976.969
977.007
977.042
977.073
977.099
977.12
977.137
977.148
977.155
977.155
977.151
977.14
977.123
977.101
977.072
977.036
976.995
976.946
976.891
976.829
976.761
976.685
976.602
976.511
976.414
976.308
976.195
976.075
975.947
975.812
975.671
975.523
975.369
975.21
975.048
974.882
974.715
974.548
974.383
974.221
974.065
973.917
973.778
973.651
973.537
973.44
973.36
973.301
973.262
973.246
973.254
973.286
973.343
973.426
973.534
973.667
973.824
974.003
974.205
974.427
974.668
974.926
975.198
975.484
975.781
976.086
976.399
976.715
977.035
977.356
977.675
977.993
978.306
978.613
978.915
979.208
979.494
979.77
980.037
980.293
980.539
980.773
980.997
981.209
981.411
981.602
981.782
981.951
982.111
982.261
982.401
982.534
982.657
982.772
982.88
982.981
983.074
983.162
983.243
983.318
983.388
983.452
983.51
983.562
983.61
983.651
983.686
983.716
983.739
983.755
983.765
983.767
983.761
983.746
983.723
983.691
983.648
983.596
983.532
983.458
983.372
983.275
983.166
983.044
982.911
982.765
982.607
982.437
982.255
982.062
981.857
981.642
981.416
981.181
980.936
980.683
980.422
980.154
979.879
979.597
979.31
979.017
978.718
978.412
978.104
977.786
977.456
977.124
976.787
976.414
976.02
975.657
975.238
974.676
974.205
973.84
972.99
971.999
971.88
971.075
968.87
968.575
968.665
966.998
1019.26
1019.3
1018.89
1017.42
1017.57
1017.43
1016.27
1015.65
1015.5
1015.09
1014.53
1014.18
1013.95
1013.64
1013.32
1013.06
1012.83
1012.58
1012.34
1012.11
1011.89
1011.66
1011.44
1011.21
1010.99
1010.76
1010.53
1010.29
1010.05
1009.8
1009.55
1009.28
1009.01
1008.73
1008.44
1008.14
1007.83
1007.51
1007.17
1006.83
1006.46
1006.09
1005.7
1005.29
1004.86
1004.42
1003.97
1003.49
1003
1002.49
1001.97
1001.42
1000.86
1000.29
999.692
999.082
998.458
997.819
997.167
996.504
995.83
995.146
994.456
993.759
993.059
992.357
991.653
990.952
990.254
989.561
988.876
988.2
987.535
986.882
986.243
985.62
985.014
984.425
983.856
983.306
982.777
982.269
981.783
981.318
980.875
980.455
980.056
979.679
979.324
978.99
978.677
978.384
978.111
977.858
977.624
977.407
977.209
977.027
976.862
976.713
976.578
976.459
976.353
976.26
976.181
976.113
976.057
976.011
975.976
975.95
975.933
975.925
975.925
975.932
975.946
975.966
975.992
976.023
976.06
976.1
976.144
976.191
976.241
976.294
976.348
976.404
976.461
976.518
976.575
976.632
976.687
976.742
976.795
976.846
976.895
976.941
976.984
977.024
977.06
977.092
977.119
977.142
977.16
977.173
977.18
977.182
977.179
977.169
977.154
977.132
977.104
977.069
977.028
976.981
976.927
976.865
976.797
976.721
976.638
976.548
976.45
976.344
976.231
976.11
975.981
975.845
975.701
975.551
975.394
975.233
975.066
974.897
974.725
974.553
974.383
974.215
974.053
973.899
973.754
973.62
973.501
973.398
973.313
973.248
973.206
973.186
973.191
973.22
973.276
973.358
973.465
973.599
973.757
973.938
974.142
974.367
974.611
974.873
975.149
975.439
975.739
976.049
976.365
976.686
977.01
977.334
977.657
977.978
978.294
978.605
978.909
979.205
979.493
979.771
980.04
980.297
980.544
980.78
981.004
981.218
981.42
981.611
981.792
981.962
982.121
982.271
982.412
982.544
982.668
982.783
982.891
982.992
983.086
983.174
983.255
983.331
983.401
983.466
983.525
983.579
983.627
983.67
983.707
983.738
983.762
983.781
983.792
983.796
983.793
983.78
983.759
983.729
983.689
983.639
983.578
983.506
983.423
983.327
983.22
983.1
982.968
982.823
982.667
982.497
982.316
982.123
981.918
981.703
981.477
981.242
980.996
980.743
980.482
980.213
979.938
979.656
979.369
979.076
978.779
978.475
978.165
977.854
977.534
977.196
976.857
976.524
976.141
975.721
975.362
974.958
974.337
973.82
973.531
972.7
971.596
971.352
970.902
969.57
968.737
968.76
1018.22
1018.62
1018.15
1017.52
1017.34
1016.61
1016.26
1016.02
1015.48
1014.97
1014.69
1014.42
1014.05
1013.73
1013.48
1013.23
1012.96
1012.71
1012.48
1012.25
1012.02
1011.79
1011.57
1011.34
1011.11
1010.88
1010.64
1010.4
1010.16
1009.91
1009.65
1009.39
1009.11
1008.83
1008.54
1008.24
1007.92
1007.6
1007.26
1006.91
1006.54
1006.16
1005.76
1005.35
1004.92
1004.48
1004.02
1003.54
1003.04
1002.52
1001.99
1001.44
1000.87
1000.28
999.679
999.059
998.425
997.776
997.114
996.44
995.755
995.061
994.359
993.653
992.942
992.229
991.516
990.805
990.099
989.398
988.706
988.024
987.353
986.696
986.053
985.428
984.82
984.231
983.662
983.113
982.586
982.081
981.598
981.137
980.699
980.284
979.891
979.519
979.17
978.843
978.536
978.25
977.984
977.737
977.509
977.299
977.106
976.931
976.772
976.628
976.499
976.385
976.284
976.196
976.121
976.058
976.005
975.963
975.932
975.909
975.895
975.89
975.892
975.902
975.918
975.94
975.968
976.001
976.038
976.08
976.125
976.173
976.225
976.278
976.333
976.39
976.448
976.505
976.564
976.621
976.678
976.734
976.788
976.84
976.89
976.937
976.982
977.023
977.06
977.094
977.123
977.147
977.167
977.182
977.191
977.195
977.193
977.185
977.171
977.151
977.125
977.091
977.052
977.006
976.952
976.892
976.824
976.749
976.666
976.576
976.478
976.372
976.258
976.136
976.006
975.868
975.722
975.569
975.409
975.244
975.074
974.899
974.723
974.545
974.369
974.195
974.027
973.866
973.714
973.575
973.449
973.341
973.25
973.181
973.134
973.111
973.114
973.142
973.197
973.279
973.387
973.522
973.682
973.866
974.073
974.302
974.55
974.816
975.098
975.392
975.698
976.012
976.333
976.658
976.986
977.315
977.642
977.966
978.286
978.6
978.907
979.206
979.496
979.776
980.046
980.306
980.554
980.791
981.017
981.231
981.434
981.625
981.806
981.976
982.136
982.286
982.427
982.559
982.683
982.799
982.906
983.008
983.102
983.19
983.272
983.349
983.42
983.485
983.546
983.601
983.65
983.695
983.734
983.767
983.794
983.814
983.828
983.834
983.833
983.823
983.805
983.777
983.74
983.692
983.634
983.565
983.484
983.391
983.285
983.167
983.037
982.894
982.739
982.57
982.39
982.197
981.993
981.778
981.552
981.317
981.072
980.819
980.558
980.289
980.014
979.734
979.448
979.156
978.861
978.563
978.256
977.945
977.635
977.313
976.971
976.636
976.306
975.908
975.485
975.153
974.721
974.063
973.639
973.326
972.4
971.615
971.399
970.616
969.82
969.681
1017.95
1017.65
1017.43
1017.57
1016.95
1016.38
1016.3
1015.88
1015.38
1015.11
1014.84
1014.46
1014.14
1013.89
1013.64
1013.35
1013.1
1012.87
1012.63
1012.4
1012.16
1011.94
1011.71
1011.48
1011.25
1011.02
1010.78
1010.54
1010.29
1010.04
1009.78
1009.51
1009.24
1008.95
1008.66
1008.35
1008.04
1007.71
1007.37
1007.01
1006.64
1006.25
1005.85
1005.44
1005
1004.55
1004.08
1003.59
1003.09
1002.56
1002.02
1001.46
1000.88
1000.28
999.67
999.039
998.392
997.73
997.055
996.367
995.669
994.961
994.247
993.526
992.802
992.076
991.351
990.629
989.911
989.201
988.499
987.809
987.131
986.468
985.821
985.192
984.581
983.991
983.422
982.874
982.349
981.847
981.367
980.911
980.478
980.069
979.682
979.318
978.976
978.655
978.356
978.078
977.819
977.58
977.36
977.157
976.972
976.804
976.652
976.515
976.393
976.285
976.19
976.108
976.038
975.98
975.932
975.895
975.868
975.849
975.839
975.837
975.842
975.854
975.873
975.897
975.927
975.961
976.001
976.043
976.09
976.139
976.191
976.245
976.301
976.358
976.416
976.474
976.533
976.591
976.648
976.704
976.759
976.812
976.863
976.911
976.957
976.999
977.038
977.073
977.104
977.13
977.152
977.169
977.18
977.186
977.187
977.181
977.17
977.152
977.128
977.096
977.059
977.014
976.963
976.904
976.837
976.763
976.681
976.591
976.493
976.387
976.273
976.15
976.018
975.878
975.73
975.574
975.411
975.242
975.067
974.888
974.706
974.523
974.341
974.161
973.987
973.819
973.662
973.516
973.386
973.272
973.177
973.104
973.054
973.028
973.029
973.056
973.111
973.194
973.304
973.442
973.605
973.793
974.004
974.238
974.491
974.762
975.048
975.348
975.659
975.978
976.304
976.634
976.967
977.3
977.631
977.959
978.283
978.6
978.909
979.211
979.503
979.785
980.057
980.317
980.567
980.805
981.031
981.245
981.449
981.641
981.821
981.992
982.151
982.302
982.443
982.576
982.699
982.815
982.924
983.025
983.12
983.209
983.292
983.37
983.442
983.509
983.571
983.627
983.679
983.725
983.766
983.802
983.831
983.854
983.87
983.879
983.88
983.874
983.859
983.834
983.8
983.755
983.7
983.633
983.555
983.464
983.362
983.246
983.117
982.976
982.823
982.656
982.476
982.285
982.081
981.867
981.642
981.407
981.162
980.91
980.65
980.383
980.109
979.83
979.547
979.259
978.966
978.671
978.375
978.069
977.758
977.455
977.138
976.792
976.462
976.15
975.743
975.307
975.008
974.593
973.915
973.494
973.21
972.455
971.704
971.398
970.985
970.25
1017.49
1017.29
1017.18
1017
1016.62
1016.49
1016.1
1015.67
1015.47
1015.19
1014.81
1014.51
1014.29
1014.02
1013.73
1013.48
1013.26
1013.02
1012.77
1012.55
1012.32
1012.09
1011.87
1011.64
1011.41
1011.17
1010.94
1010.7
1010.45
1010.19
1009.93
1009.66
1009.39
1009.1
1008.8
1008.5
1008.18
1007.84
1007.5
1007.14
1006.76
1006.37
1005.97
1005.54
1005.1
1004.64
1004.17
1003.67
1003.16
1002.62
1002.07
1001.5
1000.9
1000.29
999.667
999.021
998.36
997.683
996.992
996.288
995.573
994.849
994.118
993.381
992.641
991.9
991.16
990.424
989.693
988.97
988.257
987.556
986.87
986.2
985.547
984.913
984.299
983.707
983.137
982.591
982.067
981.568
981.093
980.642
980.215
979.812
979.433
979.076
978.742
978.43
978.139
977.87
977.62
977.39
977.178
976.984
976.808
976.648
976.504
976.375
976.26
976.16
976.072
975.997
975.933
975.881
975.839
975.807
975.784
975.77
975.764
975.766
975.775
975.79
975.811
975.838
975.87
975.906
975.946
975.991
976.038
976.088
976.14
976.194
976.25
976.307
976.365
976.423
976.481
976.538
976.595
976.651
976.706
976.759
976.81
976.859
976.905
976.948
976.988
977.024
977.057
977.085
977.108
977.127
977.141
977.15
977.153
977.15
977.142
977.127
977.106
977.078
977.043
977.001
976.951
976.894
976.83
976.758
976.677
976.588
976.491
976.385
976.27
976.146
976.014
975.872
975.722
975.564
975.398
975.225
975.046
974.863
974.676
974.488
974.3
974.115
973.935
973.762
973.599
973.449
973.314
973.196
973.097
973.021
972.969
972.942
972.943
972.97
973.026
973.111
973.224
973.364
973.531
973.723
973.94
974.178
974.436
974.713
975.004
975.31
975.626
975.95
976.281
976.616
976.953
977.29
977.625
977.957
978.283
978.603
978.915
979.219
979.513
979.796
980.069
980.331
980.581
980.819
981.046
981.261
981.464
981.656
981.837
982.007
982.167
982.318
982.459
982.591
982.716
982.832
982.941
983.044
983.139
983.229
983.313
983.393
983.467
983.536
983.599
983.658
983.712
983.761
983.804
983.842
983.874
983.9
983.919
983.931
983.935
983.932
983.92
983.898
983.867
983.826
983.774
983.71
983.635
983.547
983.447
983.334
983.208
983.069
982.917
982.752
982.575
982.385
982.183
981.969
981.746
981.512
981.269
981.018
980.759
980.494
980.223
979.947
979.667
979.384
979.098
978.806
978.515
978.224
977.923
977.618
977.325
977.015
976.671
976.358
976.057
975.645
975.235
974.957
974.517
973.921
973.553
973.152
972.506
972.025
971.574
970.963
1016.96
1017.01
1016.92
1016.59
1016.48
1016.32
1015.91
1015.69
1015.46
1015.12
1014.85
1014.63
1014.36
1014.08
1013.85
1013.62
1013.38
1013.14
1012.92
1012.7
1012.48
1012.25
1012.03
1011.8
1011.57
1011.34
1011.1
1010.86
1010.62
1010.36
1010.1
1009.83
1009.55
1009.26
1008.97
1008.66
1008.33
1008
1007.65
1007.28
1006.9
1006.51
1006.1
1005.67
1005.22
1004.75
1004.27
1003.76
1003.24
1002.69
1002.13
1001.54
1000.94
1000.31
999.668
999.006
998.328
997.633
996.924
996.202
995.468
994.725
993.974
993.219
992.46
991.701
990.943
990.19
989.444
988.706
987.98
987.268
986.571
985.892
985.232
984.593
983.975
983.381
982.81
982.265
981.744
981.248
980.778
980.332
979.912
979.516
979.145
978.797
978.472
978.169
977.889
977.628
977.389
977.168
976.966
976.782
976.616
976.465
976.33
976.21
976.104
976.012
975.932
975.864
975.808
975.762
975.726
975.7
975.683
975.674
975.673
975.679
975.692
975.71
975.734
975.764
975.797
975.836
975.877
975.922
975.97
976.02
976.072
976.126
976.182
976.238
976.294
976.351
976.408
976.464
976.52
976.575
976.629
976.681
976.731
976.779
976.825
976.868
976.907
976.944
976.977
977.007
977.032
977.053
977.069
977.08
977.086
977.087
977.081
977.07
977.052
977.027
976.996
976.958
976.912
976.858
976.796
976.726
976.648
976.561
976.465
976.36
976.246
976.122
975.99
975.847
975.696
975.536
975.367
975.192
975.01
974.823
974.632
974.44
974.248
974.059
973.875
973.698
973.531
973.377
973.238
973.117
973.017
972.939
972.886
972.86
972.86
972.889
972.948
973.035
973.151
973.295
973.466
973.664
973.885
974.128
974.392
974.673
974.971
975.281
975.602
975.932
976.267
976.606
976.947
977.288
977.626
977.96
978.289
978.611
978.925
979.23
979.525
979.81
980.083
980.345
980.596
980.834
981.061
981.276
981.479
981.67
981.851
982.022
982.181
982.331
982.473
982.606
982.73
982.847
982.957
983.06
983.158
983.249
983.335
983.416
983.492
983.564
983.63
983.691
983.748
983.799
983.846
983.887
983.922
983.951
983.973
983.988
983.996
983.996
983.987
983.97
983.942
983.904
983.855
983.795
983.723
983.638
983.542
983.432
983.308
983.172
983.023
982.86
982.685
982.497
982.297
982.085
981.863
981.632
981.391
981.142
980.886
980.624
980.357
980.085
979.809
979.531
979.252
978.97
978.684
978.401
978.12
977.826
977.53
977.254
976.954
976.615
976.323
976.044
975.635
975.246
974.983
974.57
974.026
973.657
973.281
972.722
972.187
971.665
1016.67
1016.68
1016.58
1016.45
1016.32
1016.03
1015.86
1015.68
1015.36
1015.12
1014.92
1014.66
1014.4
1014.18
1013.96
1013.72
1013.5
1013.28
1013.07
1012.84
1012.62
1012.41
1012.19
1011.96
1011.74
1011.51
1011.28
1011.04
1010.79
1010.54
1010.28
1010.01
1009.73
1009.44
1009.14
1008.83
1008.5
1008.17
1007.81
1007.45
1007.06
1006.66
1006.24
1005.81
1005.35
1004.88
1004.38
1003.87
1003.33
1002.77
1002.2
1001.6
1000.98
1000.33
999.674
998.994
998.296
997.582
996.852
996.109
995.354
994.589
993.817
993.039
992.259
991.479
990.701
989.929
989.165
988.411
987.67
986.944
986.236
985.547
984.878
984.233
983.611
983.015
982.443
981.898
981.38
980.888
980.423
979.984
979.571
979.184
978.821
978.483
978.168
977.876
977.606
977.357
977.128
976.919
976.728
976.554
976.398
976.258
976.133
976.023
975.926
975.843
975.772
975.712
975.664
975.625
975.597
975.577
975.567
975.564
975.568
975.578
975.595
975.617
975.644
975.676
975.712
975.752
975.795
975.841
975.888
975.938
975.99
976.044
976.097
976.152
976.206
976.261
976.316
976.37
976.423
976.475
976.527
976.576
976.625
976.671
976.715
976.757
976.796
976.831
976.864
976.894
976.92
976.942
976.96
976.974
976.982
976.986
976.984
976.976
976.962
976.941
976.914
976.88
976.838
976.788
976.731
976.665
976.59
976.506
976.413
976.31
976.197
976.075
975.943
975.8
975.649
975.488
975.319
975.142
974.958
974.769
974.576
974.382
974.187
973.995
973.808
973.629
973.46
973.304
973.164
973.042
972.942
972.864
972.812
972.786
972.789
972.82
972.881
972.972
973.092
973.24
973.416
973.618
973.844
974.093
974.361
974.648
974.95
975.266
975.592
975.925
976.265
976.607
976.951
977.295
977.635
977.972
978.302
978.625
978.94
979.246
979.542
979.826
980.1
980.361
980.611
980.849
981.075
981.289
981.492
981.683
981.863
982.033
982.192
982.342
982.484
982.616
982.741
982.859
982.97
983.074
983.173
983.267
983.355
983.438
983.517
983.591
983.661
983.725
983.785
983.84
983.89
983.934
983.972
984.005
984.031
984.05
984.061
984.065
984.06
984.046
984.021
983.987
983.942
983.886
983.817
983.737
983.643
983.537
983.417
983.284
983.138
982.978
982.805
982.62
982.423
982.214
981.995
981.766
981.529
981.283
981.031
980.773
980.51
980.244
979.975
979.703
979.43
979.159
978.885
978.608
978.338
978.07
977.787
977.507
977.25
976.964
976.642
976.375
976.103
975.723
975.376
975.094
974.692
974.251
973.857
973.418
972.94
972.318
1016.46
1016.4
1016.33
1016.29
1016.11
1015.92
1015.79
1015.55
1015.33
1015.15
1014.92
1014.68
1014.48
1014.27
1014.04
1013.82
1013.62
1013.41
1013.19
1012.98
1012.77
1012.56
1012.34
1012.13
1011.91
1011.68
1011.45
1011.21
1010.97
1010.72
1010.46
1010.19
1009.92
1009.63
1009.33
1009.01
1008.69
1008.35
1007.99
1007.62
1007.24
1006.83
1006.41
1005.96
1005.5
1005.02
1004.51
1003.99
1003.44
1002.87
1002.27
1001.66
1001.02
1000.36
999.684
998.984
998.266
997.529
996.777
996.01
995.23
994.442
993.645
992.843
992.039
991.235
990.435
989.641
988.856
988.084
987.326
986.585
985.863
985.163
984.486
983.834
983.207
982.608
982.036
981.492
980.977
980.49
980.031
979.599
979.195
978.816
978.464
978.136
977.833
977.552
977.294
977.057
976.841
976.643
976.464
976.303
976.158
976.029
975.915
975.815
975.729
975.656
975.594
975.544
975.504
975.474
975.453
975.441
975.436
975.439
975.449
975.465
975.486
975.512
975.543
975.578
975.616
975.658
975.701
975.748
975.796
975.845
975.896
975.947
975.999
976.051
976.103
976.155
976.207
976.257
976.307
976.355
976.403
976.449
976.493
976.536
976.577
976.616
976.653
976.687
976.718
976.747
976.773
976.795
976.813
976.828
976.839
976.844
976.845
976.841
976.831
976.815
976.792
976.763
976.726
976.681
976.628
976.567
976.497
976.418
976.328
976.229
976.12
976
975.87
975.73
975.58
975.421
975.252
975.076
974.892
974.703
974.51
974.315
974.12
973.928
973.741
973.561
973.392
973.236
973.097
972.976
972.877
972.801
972.751
972.728
972.733
972.768
972.833
972.928
973.052
973.205
973.386
973.593
973.824
974.077
974.35
974.642
974.948
975.268
975.597
975.934
976.277
976.622
976.968
977.313
977.655
977.992
978.323
978.647
978.962
979.267
979.562
979.846
980.118
980.379
980.628
980.864
981.089
981.301
981.503
981.692
981.871
982.04
982.199
982.348
982.489
982.622
982.748
982.866
982.978
983.084
983.185
983.281
983.372
983.458
983.54
983.617
983.69
983.758
983.822
983.88
983.934
983.982
984.025
984.061
984.091
984.114
984.13
984.137
984.136
984.126
984.105
984.075
984.034
983.982
983.917
983.84
983.751
983.649
983.533
983.404
983.261
983.105
982.936
982.755
982.561
982.356
982.141
981.915
981.682
981.441
981.193
980.941
980.684
980.424
980.162
979.9
979.635
979.372
979.112
978.851
978.587
978.334
978.084
977.815
977.555
977.323
977.053
976.754
976.512
976.255
975.905
975.588
975.307
974.933
974.504
974.11
973.674
973.012
1016.23
1016.22
1016.17
1016.08
1015.96
1015.86
1015.68
1015.48
1015.33
1015.14
1014.92
1014.73
1014.54
1014.32
1014.12
1013.93
1013.73
1013.52
1013.32
1013.12
1012.92
1012.71
1012.5
1012.29
1012.07
1011.85
1011.63
1011.39
1011.15
1010.91
1010.65
1010.38
1010.11
1009.82
1009.52
1009.21
1008.88
1008.54
1008.18
1007.81
1007.42
1007.01
1006.58
1006.13
1005.66
1005.17
1004.65
1004.12
1003.56
1002.97
1002.36
1001.73
1001.08
1000.4
999.699
998.977
998.235
997.475
996.697
995.904
995.098
994.282
993.458
992.629
991.798
990.968
990.143
989.324
988.517
987.724
986.947
986.189
985.453
984.741
984.054
983.394
982.763
982.161
981.589
981.047
980.535
980.053
979.601
979.177
978.782
978.415
978.074
977.758
977.468
977.2
976.955
976.731
976.528
976.343
976.178
976.029
975.897
975.78
975.678
975.59
975.515
975.452
975.401
975.36
975.329
975.308
975.296
975.291
975.294
975.304
975.32
975.341
975.367
975.398
975.432
975.47
975.511
975.554
975.599
975.646
975.694
975.742
975.791
975.841
975.89
975.939
975.988
976.036
976.083
976.129
976.174
976.218
976.26
976.301
976.34
976.378
976.414
976.449
976.481
976.512
976.54
976.566
976.59
976.61
976.628
976.643
976.654
976.662
976.665
976.664
976.657
976.645
976.627
976.603
976.572
976.533
976.486
976.431
976.366
976.293
976.209
976.115
976.012
975.897
975.771
975.635
975.489
975.333
975.168
974.994
974.813
974.626
974.435
974.243
974.05
973.86
973.675
973.498
973.331
973.178
973.042
972.924
972.828