# vtk DataFile Version 2.0
LBE mesh
ASCII
DATASET STRUCTURED_POINTS
DIMENSIONS 300 100 1
ASPECT_RATIO 1 1 1
ORIGIN 0 0 0
POINT_DATA 30000
SCALARS rho double 1
LOOKUP_TABLE default
1048.89
1017.47
1016.79
1023.22
1021.41
1017.55
1017.38
1017.9
1017.15
1016.37
1016.22
1016.07
1015.7
1015.41
1015.21
1015
1014.75
1014.53
1014.32
1014.1
1013.87
1013.65
1013.42
1013.19
1012.95
1012.71
1012.47
1012.22
1011.97
1011.72
1011.46
1011.21
1010.95
1010.69
1010.42
1010.15
1009.88
1009.6
1009.32
1009.02
1008.72
1008.41
1008.09
1007.76
1007.41
1007.05
1006.67
1006.27
1005.85
1005.42
1004.96
1004.48
1003.97
1003.45
1002.9
1002.33
1001.74
1001.13
1000.5
999.848
999.179
998.493
997.794
997.082
996.36
995.631
994.896
994.16
993.423
992.69
991.961
991.241
990.531
989.833
989.149
988.481
987.829
987.195
986.58
985.985
985.409
984.852
984.317
983.8
983.304
982.827
982.368
981.929
981.508
981.105
980.719
980.35
979.998
979.662
979.342
979.037
978.746
978.469
978.206
977.956
977.718
977.493
977.278
977.075
976.883
976.701
976.53
976.369
976.217
976.076
975.945
975.824
975.714
975.613
975.522
975.441
975.369
975.306
975.252
975.205
975.166
975.132
975.104
975.08
975.058
975.039
975.021
975.002
974.983
974.962
974.938
974.912
974.881
974.848
974.81
974.769
974.723
974.674
974.622
974.567
974.51
974.45
974.39
974.33
974.269
974.21
974.153
974.099
974.048
974.001
973.959
973.923
973.894
973.872
973.857
973.851
973.855
973.868
973.891
973.927
973.975
974.036
974.111
974.202
974.309
974.433
974.575
974.736
974.916
975.116
975.336
975.576
975.837
976.117
976.416
976.734
977.069
977.419
977.784
978.162
978.55
978.948
979.353
979.763
980.176
980.59
981.004
981.416
981.824
982.228
982.624
983.014
983.395
983.767
984.129
984.482
984.823
985.155
985.476
985.786
986.085
986.375
986.653
986.922
987.181
987.43
987.669
987.9
988.121
988.333
988.536
988.731
988.917
989.095
989.265
989.428
989.582
989.729
989.87
990.003
990.13
990.251
990.366
990.476
990.58
990.678
990.771
990.86
990.943
991.021
991.094
991.161
991.225
991.283
991.336
991.385
991.429
991.468
991.504
991.535
991.562
991.587
991.608
991.626
991.641
991.653
991.662
991.667
991.67
991.668
991.662
991.651
991.634
991.612
991.582
991.545
991.5
991.446
991.383
991.311
991.229
991.139
991.039
990.931
990.815
990.692
990.562
990.426
990.285
990.141
989.992
989.84
989.686
989.53
989.372
989.211
989.048
988.883
988.712
988.537
988.358
988.167
987.966
987.761
987.538
987.278
987.016
986.759
986.396
985.954
985.669
985.269
984.28
983.624
983.848
981.946
978.123
980.354
981.333
957.093
1031.91
1028.42
1024.39
1019.25
1019.44
1019.62
1018.47
1017.33
1017.12
1016.88
1016.42
1016.03
1015.81
1015.56
1015.29
1015.04
1014.82
1014.59
1014.36
1014.13
1013.91
1013.68
1013.44
1013.21
1012.97
1012.72
1012.48
1012.23
1011.97
1011.72
1011.46
1011.2
1010.94
1010.68
1010.41
1010.14
1009.86
1009.58
1009.3
1009
1008.7
1008.39
1008.06
1007.73
1007.38
1007.01
1006.63
1006.23
1005.81
1005.37
1004.91
1004.43
1003.92
1003.4
1002.85
1002.28
1001.69
1001.08
1000.45
999.795
999.126
998.442
997.744
997.033
996.314
995.587
994.855
994.121
993.388
992.657
991.932
991.216
990.509
989.815
989.134
988.47
987.821
987.191
986.58
985.987
985.414
984.861
984.328
983.814
983.32
982.846
982.39
981.953
981.534
981.132
980.749
980.382
980.031
979.697
979.379
979.075
978.786
978.511
978.249
978.001
977.765
977.54
977.328
977.126
976.935
976.755
976.584
976.424
976.274
976.134
976.004
975.884
975.774
975.674
975.583
975.503
975.431
975.369
975.315
975.268
975.229
975.195
975.166
975.141
975.119
975.099
975.081
975.061
975.041
975.02
974.996
974.969
974.938
974.904
974.866
974.825
974.779
974.73
974.678
974.623
974.565
974.506
974.446
974.385
974.325
974.266
974.209
974.155
974.104
974.057
974.015
973.979
973.95
973.927
973.913
973.906
973.909
973.921
973.945
973.979
974.026
974.086
974.16
974.249
974.355
974.477
974.617
974.775
974.953
975.15
975.367
975.605
975.862
976.14
976.436
976.75
977.082
977.43
977.792
978.166
978.552
978.947
979.35
979.758
980.169
980.582
980.994
981.405
981.813
982.216
982.612
983.002
983.384
983.756
984.119
984.473
984.816
985.148
985.47
985.782
986.083
986.373
986.653
986.923
987.182
987.432
987.672
987.903
988.125
988.337
988.541
988.735
988.922
989.1
989.27
989.431
989.586
989.733
989.873
990.006
990.132
990.253
990.367
990.476
990.58
990.678
990.771
990.858
990.941
991.019
991.091
991.159
991.222
991.279
991.332
991.38
991.424
991.464
991.499
991.53
991.557
991.581
991.602
991.619
991.634
991.646
991.654
991.659
991.661
991.659
991.652
991.641
991.624
991.6
991.57
991.532
991.487
991.432
991.369
991.296
991.215
991.124
991.025
990.917
990.801
990.678
990.548
990.412
990.272
990.127
989.979
989.827
989.672
989.516
989.356
989.195
989.03
988.863
988.691
988.513
988.329
988.138
987.935
987.716
987.487
987.245
986.96
986.643
986.34
985.963
985.436
984.961
984.561
983.613
982.368
981.975
980.896
976.742
972.983
970.996
1023.87
1028.67
1024.05
1019.8
1020.07
1019.81
1018.45
1017.53
1017.35
1017.02
1016.52
1016.15
1015.92
1015.65
1015.36
1015.12
1014.89
1014.65
1014.41
1014.18
1013.95
1013.72
1013.48
1013.24
1012.99
1012.75
1012.5
1012.24
1011.99
1011.73
1011.47
1011.21
1010.95
1010.68
1010.41
1010.14
1009.86
1009.58
1009.29
1009
1008.69
1008.38
1008.05
1007.71
1007.36
1006.99
1006.61
1006.2
1005.78
1005.34
1004.88
1004.39
1003.89
1003.36
1002.81
1002.24
1001.64
1001.03
1000.4
999.742
999.072
998.387
997.687
996.976
996.255
995.528
994.796
994.063
993.331
992.601
991.878
991.163
990.459
989.767
989.089
988.427
987.782
987.155
986.546
985.957
985.387
984.837
984.307
983.797
983.306
982.834
982.381
981.947
981.53
981.132
980.75
980.386
980.039
979.707
979.391
979.09
978.804
978.531
978.272
978.027
977.793
977.571
977.361
977.162
976.973
976.795
976.627
976.469
976.321
976.183
976.055
975.937
975.828
975.73
975.641
975.562
975.492
975.43
975.377
975.331
975.293
975.259
975.231
975.207
975.186
975.166
975.148
975.129
975.109
975.088
975.065
975.038
975.008
974.974
974.937
974.896
974.851
974.802
974.751
974.697
974.64
974.581
974.522
974.462
974.402
974.344
974.287
974.233
974.182
974.135
974.094
974.057
974.028
974.004
973.989
973.981
973.982
973.993
974.014
974.046
974.091
974.148
974.219
974.306
974.408
974.527
974.663
974.818
974.993
975.187
975.401
975.635
975.89
976.164
976.458
976.77
977.099
977.445
977.805
978.178
978.563
978.957
979.358
979.766
980.177
980.59
981.003
981.414
981.823
982.226
982.625
983.015
983.399
983.773
984.138
984.493
984.838
985.173
985.497
985.81
986.112
986.404
986.685
986.955
987.216
987.466
987.707
987.938
988.159
988.371
988.574
988.768
988.953
989.13
989.299
989.459
989.612
989.757
989.895
990.026
990.151
990.27
990.383
990.49
990.592
990.688
990.78
990.866
990.947
991.023
991.094
991.16
991.222
991.279
991.331
991.378
991.421
991.46
991.494
991.525
991.552
991.575
991.595
991.612
991.627
991.637
991.646
991.65
991.652
991.649
991.642
991.63
991.612
991.588
991.557
991.519
991.473
991.418
991.355
991.282
991.2
991.11
991.01
990.903
990.787
990.664
990.535
990.4
990.26
990.116
989.968
989.816
989.663
989.506
989.347
989.185
989.02
988.852
988.68
988.502
988.315
988.122
987.921
987.7
987.46
987.223
986.953
986.606
986.28
985.99
985.455
984.781
984.556
984.026
982.14
981.418
982.493
978.235
972.656
977.037
1023.59
1022.34
1021.84
1023.03
1020.57
1018.51
1018.49
1018.43
1017.55
1016.87
1016.66
1016.41
1016.02
1015.7
1015.47
1015.23
1014.97
1014.72
1014.49
1014.25
1014.01
1013.77
1013.53
1013.29
1013.04
1012.79
1012.54
1012.28
1012.02
1011.76
1011.5
1011.24
1010.97
1010.7
1010.43
1010.16
1009.88
1009.59
1009.3
1009.01
1008.7
1008.38
1008.06
1007.71
1007.36
1006.99
1006.6
1006.19
1005.77
1005.32
1004.86
1004.37
1003.86
1003.33
1002.77
1002.2
1001.6
1000.98
1000.34
999.683
999.009
998.319
997.615
996.9
996.176
995.446
994.712
993.977
993.243
992.513
991.789
991.074
990.371
989.68
989.003
988.344
987.701
987.076
986.471
985.885
985.318
984.772
984.246
983.739
983.252
982.784
982.335
981.904
981.492
981.097
980.72
980.359
980.015
979.687
979.374
979.077
978.794
978.526
978.27
978.028
977.798
977.58
977.373
977.177
976.992
976.817
976.653
976.498
976.353
976.218
976.092
975.977
975.871
975.775
975.689
975.612
975.544
975.485
975.434
975.391
975.354
975.322
975.296
975.273
975.253
975.235
975.218
975.201
975.183
975.163
975.141
975.115
975.087
975.055
975.019
974.979
974.936
974.889
974.839
974.786
974.732
974.674
974.616
974.557
974.499
974.441
974.385
974.331
974.281
974.234
974.193
974.156
974.125
974.1
974.084
974.074
974.073
974.081
974.099
974.128
974.169
974.222
974.289
974.371
974.469
974.583
974.716
974.867
975.037
975.227
975.438
975.669
975.921
976.193
976.484
976.794
977.122
977.466
977.826
978.198
978.583
978.977
979.38
979.788
980.2
980.614
981.029
981.443
981.853
982.259
982.66
983.053
983.439
983.816
984.184
984.541
984.889
985.226
985.552
985.867
986.171
986.464
986.747
987.018
987.28
987.53
987.771
988.001
988.222
988.433
988.634
988.826
989.01
989.184
989.351
989.508
989.659
989.801
989.936
990.065
990.187
990.302
990.412
990.516
990.615
990.708
990.797
990.88
990.959
991.032
991.102
991.166
991.226
991.28
991.331
991.376
991.418
991.456
991.489
991.519
991.545
991.567
991.587
991.603
991.617
991.627
991.635
991.639
991.64
991.637
991.63
991.617
991.599
991.575
991.544
991.505
991.459
991.404
991.34
991.268
991.186
991.096
990.997
990.89
990.775
990.653
990.525
990.39
990.251
990.108
989.961
989.81
989.658
989.502
989.344
989.183
989.02
988.852
988.679
988.503
988.319
988.124
987.92
987.711
987.478
987.213
986.958
986.682
986.296
985.902
985.625
985.102
984.247
983.898
983.626
981.824
980.348
980.706
980.07
978.449
1023.56
1021.42
1021.37
1021.28
1019.84
1019.45
1018.92
1018.1
1017.52
1017.25
1016.89
1016.46
1016.13
1015.87
1015.6
1015.33
1015.07
1014.83
1014.59
1014.35
1014.1
1013.86
1013.62
1013.37
1013.12
1012.86
1012.61
1012.35
1012.08
1011.82
1011.56
1011.29
1011.02
1010.75
1010.48
1010.2
1009.92
1009.63
1009.34
1009.04
1008.73
1008.41
1008.08
1007.74
1007.38
1007
1006.61
1006.2
1005.77
1005.32
1004.85
1004.35
1003.84
1003.3
1002.74
1002.15
1001.55
1000.92
1000.28
999.612
998.93
998.232
997.521
996.8
996.07
995.334
994.595
993.855
993.117
992.384
991.658
990.942
990.237
989.546
988.87
988.212
987.57
986.948
986.346
985.763
985.201
984.659
984.137
983.635
983.152
982.689
982.245
981.82
981.412
981.022
980.65
980.294
979.955
979.632
979.325
979.032
978.754
978.49
978.239
978.001
977.776
977.562
977.36
977.168
976.987
976.816
976.655
976.505
976.363
976.232
976.11
975.999
975.897
975.804
975.721
975.648
975.583
975.527
975.479
975.439
975.405
975.376
975.353
975.333
975.316
975.301
975.286
975.271
975.256
975.239
975.219
975.196
975.17
975.141
975.108
975.071
975.03
974.986
974.939
974.888
974.836
974.781
974.725
974.668
974.611
974.555
974.501
974.448
974.398
974.352
974.31
974.272
974.241
974.214
974.196
974.183
974.18
974.184
974.198
974.223
974.259
974.307
974.37
974.446
974.539
974.648
974.776
974.922
975.088
975.274
975.481
975.709
975.958
976.227
976.517
976.825
977.152
977.496
977.856
978.229
978.615
979.01
979.414
979.824
980.239
980.656
981.074
981.49
981.904
982.313
982.717
983.114
983.503
983.883
984.254
984.615
984.966
985.306
985.634
985.951
986.258
986.552
986.836
987.108
987.37
987.62
987.861
988.09
988.31
988.519
988.718
988.908
989.089
989.26
989.423
989.577
989.724
989.862
989.994
990.118
990.236
990.347
990.453
990.553
990.648
990.737
990.822
990.902
990.977
991.047
991.113
991.174
991.231
991.284
991.332
991.376
991.416
991.451
991.483
991.512
991.537
991.558
991.577
991.593
991.606
991.616
991.623
991.627
991.628
991.624
991.616
991.603
991.585
991.56
991.529
991.49
991.444
991.389
991.326
991.253
991.172
991.082
990.984
990.878
990.764
990.643
990.516
990.383
990.246
990.104
989.959
989.81
989.66
989.506
989.35
989.19
989.029
988.865
988.695
988.519
988.34
988.152
987.948
987.739
987.525
987.272
986.992
986.746
986.448
985.997
985.646
985.429
984.711
983.857
983.974
983.392
981.354
981.399
981.902
980.528
1021.47
1021.51
1021.12
1019.67
1019.83
1019.71
1018.57
1017.98
1017.84
1017.45
1016.9
1016.56
1016.34
1016.04
1015.72
1015.46
1015.22
1014.97
1014.71
1014.47
1014.23
1013.98
1013.73
1013.48
1013.22
1012.96
1012.7
1012.44
1012.18
1011.91
1011.64
1011.37
1011.1
1010.83
1010.55
1010.28
1009.99
1009.7
1009.41
1009.1
1008.79
1008.47
1008.13
1007.78
1007.42
1007.04
1006.64
1006.23
1005.79
1005.33
1004.85
1004.35
1003.83
1003.28
1002.71
1002.11
1001.5
1000.86
1000.2
999.526
998.833
998.124
997.403
996.672
995.933
995.188
994.441
993.693
992.95
992.211
991.481
990.761
990.055
989.362
988.686
988.027
987.388
986.767
986.168
985.589
985.03
984.493
983.976
983.48
983.003
982.546
982.108
981.689
981.288
980.905
980.539
980.189
979.856
979.539
979.238
978.951
978.679
978.42
978.175
977.943
977.722
977.514
977.316
977.129
976.953
976.786
976.63
976.484
976.347
976.22
976.103
975.996
975.898
975.809
975.731
975.661
975.601
975.55
975.506
975.469
975.44
975.416
975.396
975.38
975.367
975.356
975.345
975.335
975.323
975.31
975.294
975.276
975.254
975.228
975.199
975.166
975.13
975.089
975.046
974.999
974.95
974.898
974.846
974.791
974.737
974.683
974.63
974.579
974.53
974.484
974.443
974.404
974.372
974.344
974.323
974.307
974.3
974.301
974.311
974.33
974.362
974.404
974.461
974.532
974.619
974.723
974.845
974.986
975.148
975.329
975.533
975.757
976.004
976.27
976.559
976.867
977.194
977.537
977.898
978.272
978.66
979.058
979.464
979.877
980.294
980.714
981.136
981.556
981.973
982.387
982.794
983.195
983.588
983.972
984.347
984.711
985.066
985.408
985.74
986.059
986.367
986.664
986.949
987.221
987.483
987.733
987.973
988.201
988.419
988.625
988.823
989.009
989.186
989.354
989.513
989.663
989.805
989.938
990.065
990.184
990.297
990.403
990.504
990.598
990.689
990.773
990.853
990.928
991
991.065
991.128
991.185
991.239
991.288
991.334
991.375
991.413
991.447
991.477
991.504
991.528
991.548
991.566
991.581
991.594
991.602
991.61
991.613
991.613
991.609
991.601
991.588
991.57
991.545
991.514
991.475
991.429
991.374
991.311
991.239
991.159
991.07
990.973
990.868
990.755
990.636
990.511
990.38
990.245
990.105
989.963
989.817
989.669
989.518
989.366
989.21
989.052
988.891
988.727
988.556
988.378
988.198
988.009
987.798
987.584
987.375
987.115
986.813
986.58
986.308
985.815
985.448
985.346
984.69
983.8
983.877
983.776
982.792
982.427
983.054
1020.41
1020.81
1020.36
1019.74
1019.59
1018.88
1018.55
1018.33
1017.8
1017.31
1017.06
1016.8
1016.44
1016.12
1015.88
1015.63
1015.36
1015.1
1014.86
1014.62
1014.37
1014.12
1013.87
1013.62
1013.36
1013.1
1012.84
1012.57
1012.3
1012.04
1011.76
1011.49
1011.22
1010.94
1010.66
1010.38
1010.09
1009.8
1009.5
1009.19
1008.88
1008.55
1008.21
1007.86
1007.49
1007.1
1006.69
1006.27
1005.82
1005.36
1004.87
1004.36
1003.82
1003.26
1002.68
1002.07
1001.44
1000.79
1000.12
999.425
998.717
997.995
997.26
996.515
995.763
995.007
994.249
993.492
992.739
991.993
991.257
990.532
989.822
989.127
988.449
987.79
987.151
986.533
985.936
985.361
984.807
984.275
983.764
983.274
982.804
982.354
981.924
981.512
981.119
980.743
980.385
980.043
979.718
979.408
979.114
978.834
978.569
978.316
978.077
977.851
977.637
977.433
977.241
977.059
976.888
976.727
976.575
976.433
976.301
976.178
976.066
975.963
975.87
975.786
975.712
975.648
975.593
975.546
975.507
975.476
975.451
975.432
975.418
975.408
975.4
975.394
975.389
975.384
975.378
975.37
975.36
975.347
975.331
975.311
975.288
975.26
975.229
975.194
975.156
975.114
975.07
975.023
974.974
974.923
974.872
974.821
974.771
974.722
974.674
974.629
974.588
974.55
974.516
974.486
974.463
974.445
974.434
974.43
974.436
974.451
974.477
974.514
974.565
974.629
974.711
974.809
974.926
975.062
975.219
975.396
975.596
975.818
976.062
976.327
976.615
976.922
977.249
977.593
977.955
978.331
978.721
979.121
979.53
979.946
980.367
980.791
981.216
981.64
982.062
982.479
982.892
983.296
983.694
984.082
984.461
984.829
985.186
985.532
985.866
986.188
986.498
986.795
987.081
987.354
987.616
987.865
988.104
988.33
988.545
988.749
988.943
989.126
989.3
989.462
989.617
989.761
989.898
990.026
990.147
990.261
990.368
990.468
990.563
990.652
990.736
990.815
990.89
990.96
991.026
991.087
991.145
991.198
991.249
991.294
991.337
991.375
991.41
991.442
991.47
991.495
991.517
991.536
991.554
991.567
991.579
991.588
991.594
991.597
991.597
991.593
991.585
991.572
991.554
991.529
991.499
991.46
991.414
991.36
991.298
991.226
991.147
991.059
990.963
990.859
990.749
990.632
990.509
990.381
990.249
990.112
989.973
989.831
989.687
989.54
989.392
989.241
989.089
988.932
988.773
988.611
988.442
988.264
988.088
987.899
987.686
987.478
987.279
987.009
986.715
986.531
986.255
985.75
985.537
985.476
984.797
984.342
984.581
984.266
984.048
984.673
1020.11
1019.83
1019.62
1019.77
1019.17
1018.62
1018.56
1018.17
1017.69
1017.44
1017.19
1016.83
1016.52
1016.29
1016.03
1015.76
1015.5
1015.27
1015.02
1014.77
1014.53
1014.28
1014.03
1013.78
1013.52
1013.26
1013
1012.73
1012.46
1012.19
1011.92
1011.64
1011.36
1011.08
1010.8
1010.52
1010.23
1009.93
1009.63
1009.31
1008.99
1008.66
1008.31
1007.95
1007.58
1007.18
1006.77
1006.33
1005.88
1005.4
1004.9
1004.37
1003.82
1003.25
1002.65
1002.02
1001.38
1000.71
1000.02
999.309
998.584
997.843
997.091
996.33
995.563
994.792
994.02
993.251
992.488
991.732
990.987
990.256
989.54
988.841
988.161
987.501
986.862
986.246
985.652
985.08
984.531
984.005
983.501
983.018
982.556
982.115
981.693
981.291
980.907
980.54
980.191
979.858
979.542
979.241
978.955
978.683
978.425
978.18
977.947
977.727
977.519
977.321
977.134
976.958
976.791
976.635
976.488
976.35
976.222
976.104
975.996
975.898
975.809
975.73
975.662
975.602
975.552
975.511
975.478
975.452
975.433
975.421
975.413
975.409
975.408
975.409
975.411
975.413
975.414
975.413
975.41
975.405
975.396
975.384
975.368
975.347
975.323
975.295
975.264
975.228
975.19
975.148
975.105
975.059
975.013
974.966
974.919
974.872
974.827
974.784
974.743
974.705
974.671
974.64
974.615
974.594
974.58
974.573
974.575
974.584
974.605
974.637
974.683
974.741
974.817
974.91
975.022
975.153
975.306
975.479
975.676
975.894
976.137
976.401
976.687
976.994
977.322
977.667
978.03
978.408
978.8
979.202
979.615
980.034
980.459
980.886
981.316
981.743
982.17
982.591
983.008
983.417
983.818
984.21
984.593
984.964
985.325
985.673
986.01
986.333
986.645
986.944
987.23
987.504
987.765
988.013
988.25
988.473
988.686
988.887
989.077
989.256
989.424
989.583
989.731
989.87
990.001
990.123
990.238
990.345
990.445
990.539
990.628
990.71
990.788
990.861
990.93
990.994
991.055
991.111
991.164
991.213
991.259
991.3
991.339
991.374
991.407
991.435
991.462
991.484
991.505
991.523
991.539
991.552
991.563
991.571
991.577
991.58
991.58
991.576
991.568
991.555
991.537
991.513
991.483
991.444
991.4
991.345
991.284
991.214
991.136
991.049
990.956
990.854
990.746
990.631
990.511
990.387
990.258
990.125
989.991
989.853
989.714
989.572
989.429
989.284
989.138
988.989
988.837
988.681
988.525
988.359
988.185
988.017
987.837
987.623
987.429
987.257
986.992
986.707
986.589
986.364
985.899
985.761
985.815
985.43
985.159
985.423
985.694
985.854
1019.63
1019.44
1019.34
1019.17
1018.82
1018.71
1018.34
1017.93
1017.76
1017.51
1017.15
1016.87
1016.66
1016.41
1016.13
1015.89
1015.67
1015.42
1015.18
1014.94
1014.7
1014.46
1014.21
1013.96
1013.7
1013.44
1013.18
1012.91
1012.64
1012.37
1012.1
1011.82
1011.54
1011.26
1010.97
1010.68
1010.39
1010.09
1009.78
1009.46
1009.13
1008.8
1008.44
1008.07
1007.69
1007.29
1006.86
1006.42
1005.95
1005.46
1004.94
1004.4
1003.83
1003.24
1002.62
1001.98
1001.31
1000.62
999.909
999.179
998.432
997.672
996.899
996.118
995.332
994.544
993.756
992.972
992.195
991.428
990.673
989.934
989.211
988.507
987.824
987.162
986.524
985.909
985.318
984.75
984.207
983.687
983.19
982.716
982.263
981.832
981.42
981.028
980.654
980.299
979.96
979.638
979.331
979.04
978.763
978.5
978.25
978.013
977.788
977.575
977.372
977.181
976.999
976.828
976.666
976.513
976.371
976.237
976.113
975.999
975.895
975.801
975.716
975.642
975.578
975.524
975.479
975.443
975.415
975.396
975.383
975.377
975.376
975.379
975.386
975.395
975.405
975.415
975.424
975.432
975.439
975.442
975.442
975.439
975.432
975.421
975.406
975.387
975.363
975.336
975.306
975.272
975.235
975.195
975.155
975.113
975.071
975.028
974.986
974.945
974.906
974.869
974.835
974.804
974.778
974.755
974.739
974.728
974.726
974.732
974.749
974.776
974.817
974.871
974.942
975.029
975.137
975.263
975.412
975.582
975.776
975.992
976.233
976.495
976.781
977.088
977.416
977.762
978.126
978.506
978.9
979.305
979.72
980.142
980.571
981.002
981.435
981.866
982.296
982.721
983.142
983.555
983.96
984.355
984.741
985.115
985.479
985.83
986.169
986.494
986.807
987.106
987.393
987.666
987.926
988.173
988.407
988.628
988.838
989.035
989.221
989.395
989.558
989.711
989.854
989.987
990.111
990.226
990.334
990.434
990.528
990.615
990.696
990.772
990.844
990.91
990.973
991.031
991.086
991.136
991.184
991.227
991.269
991.306
991.342
991.373
991.403
991.428
991.452
991.473
991.492
991.508
991.523
991.535
991.545
991.553
991.559
991.562
991.562
991.558
991.55
991.537
991.52
991.496
991.466
991.429
991.385
991.332
991.272
991.203
991.127
991.042
990.95
990.851
990.746
990.634
990.518
990.397
990.273
990.144
990.015
989.882
989.748
989.613
989.477
989.338
989.199
989.059
988.917
988.769
988.623
988.474
988.315
988.149
987.997
987.828
987.624
987.46
987.319
987.068
986.846
986.796
986.6
986.291
986.304
986.341
986.219
986.363
986.656
987.072
1019.08
1019.13
1019.05
1018.74
1018.65
1018.51
1018.13
1017.93
1017.72
1017.42
1017.17
1016.97
1016.72
1016.47
1016.25
1016.03
1015.8
1015.56
1015.34
1015.11
1014.87
1014.63
1014.39
1014.15
1013.89
1013.64
1013.38
1013.11
1012.84
1012.57
1012.3
1012.02
1011.74
1011.45
1011.17
1010.87
1010.57
1010.27
1009.96
1009.63
1009.3
1008.96
1008.6
1008.22
1007.82
1007.41
1006.97
1006.52
1006.03
1005.53
1004.99
1004.43
1003.85
1003.24
1002.6
1001.93
1001.24
1000.53
999.791
999.037
998.266
997.481
996.685
995.881
995.073
994.265
993.458
992.657
991.864
991.084
990.317
989.567
988.837
988.127
987.44
986.777
986.138
985.525
984.937
984.374
983.837
983.324
982.836
982.372
981.929
981.509
981.109
980.728
980.367
980.023
979.696
979.385
979.09
978.809
978.543
978.289
978.049
977.82
977.603
977.397
977.201
977.015
976.838
976.672
976.514
976.365
976.226
976.096
975.976
975.865
975.764
975.673
975.592
975.522
975.462
975.412
975.371
975.341
975.318
975.305
975.299
975.299
975.305
975.316
975.331
975.348
975.367
975.386
975.406
975.424
975.44
975.454
975.465
975.473
975.477
975.477
975.472
975.463
975.45
975.433
975.412
975.386
975.358
975.327
975.294
975.259
975.223
975.185
975.148
975.111
975.075
975.04
975.008
974.977
974.951
974.928
974.91
974.898
974.893
974.896
974.909
974.933
974.969
975.02
975.086
975.17
975.273
975.396
975.542
975.709
975.9
976.114
976.353
976.614
976.899
977.206
977.534
977.881
978.247
978.628
979.023
979.43
979.848
980.273
980.704
981.138
981.574
982.009
982.442
982.871
983.294
983.71
984.118
984.516
984.905
985.282
985.647
986
986.34
986.666
986.98
987.279
987.566
987.838
988.097
988.341
988.573
988.791
988.997
989.189
989.371
989.539
989.697
989.844
989.981
990.107
990.225
990.333
990.434
990.527
990.613
990.693
990.767
990.836
990.9
990.96
991.016
991.067
991.116
991.161
991.203
991.242
991.278
991.312
991.343
991.37
991.397
991.419
991.441
991.459
991.477
991.491
991.505
991.516
991.526
991.533
991.539
991.541
991.541
991.537
991.53
991.518
991.501
991.478
991.449
991.413
991.37
991.318
991.26
991.193
991.118
991.035
990.946
990.849
990.748
990.64
990.528
990.411
990.292
990.169
990.045
989.918
989.791
989.662
989.534
989.404
989.273
989.141
989.01
988.875
988.737
988.6
988.465
988.315
988.164
988.035
987.885
987.698
987.576
987.479
987.266
987.112
987.133
987.037
986.881
986.984
987.184
987.291
987.538
988.134
1018.75
1018.77
1018.68
1018.57
1018.45
1018.19
1018.05
1017.89
1017.61
1017.39
1017.22
1016.99
1016.76
1016.56
1016.36
1016.14
1015.92
1015.71
1015.5
1015.27
1015.04
1014.82
1014.58
1014.34
1014.1
1013.85
1013.59
1013.33
1013.06
1012.79
1012.52
1012.24
1011.96
1011.67
1011.38
1011.09
1010.79
1010.48
1010.16
1009.83
1009.49
1009.14
1008.77
1008.39
1007.98
1007.56
1007.11
1006.63
1006.14
1005.61
1005.06
1004.48
1003.87
1003.24
1002.57
1001.88
1001.17
1000.43
999.664
998.883
998.084
997.272
996.449
995.62
994.787
993.956
993.127
992.307
991.496
990.7
989.92
989.159
988.42
987.703
987.012
986.346
985.707
985.095
984.511
983.954
983.424
982.92
982.441
981.988
981.557
981.149
980.762
980.395
980.047
979.716
979.403
979.105
978.822
978.554
978.299
978.056
977.825
977.605
977.396
977.197
977.008
976.828
976.657
976.494
976.34
976.195
976.059
975.931
975.813
975.705
975.606
975.518
975.44
975.373
975.316
975.269
975.232
975.206
975.189
975.18
975.18
975.187
975.2
975.218
975.242
975.268
975.296
975.325
975.355
975.384
975.411
975.437
975.46
975.48
975.496
975.508
975.516
975.519
975.518
975.513
975.503
975.489
975.472
975.451
975.427
975.4
975.372
975.341
975.311
975.279
975.248
975.217
975.188
975.16
975.135
975.113
975.095
975.083
975.077
975.078
975.089
975.11
975.144
975.191
975.255
975.336
975.436
975.556
975.699
975.864
976.053
976.265
976.502
976.762
977.047
977.353
977.681
978.028
978.395
978.776
979.173
979.582
980.001
980.428
980.861
981.297
981.735
982.172
982.607
983.038
983.464
983.882
984.292
984.692
985.082
985.461
985.828
986.181
986.522
986.849
987.162
987.461
987.746
988.016
988.273
988.515
988.744
988.958
989.159
989.347
989.523
989.686
989.839
989.979
990.109
990.229
990.34
990.441
990.534
990.619
990.699
990.771
990.838
990.899
990.957
991.009
991.058
991.103
991.146
991.185
991.221
991.255
991.286
991.315
991.342
991.366
991.388
991.408
991.427
991.443
991.459
991.472
991.484
991.494
991.503
991.51
991.516
991.518
991.518
991.515
991.508
991.497
991.481
991.458
991.431
991.396
991.354
991.304
991.248
991.182
991.11
991.03
990.944
990.851
990.752
990.648
990.541
990.429
990.315
990.198
990.08
989.96
989.841
989.719
989.599
989.477
989.357
989.234
989.112
988.992
988.869
988.741
988.62
988.501
988.366
988.236
988.137
988.009
987.859
987.789
987.731
987.588
987.536
987.6
987.605
987.649
987.852
988.108
988.439
988.985
1018.5
1018.45
1018.4
1018.37
1018.22
1018.05
1017.95
1017.74
1017.55
1017.41
1017.2
1017
1016.82
1016.64
1016.43
1016.24
1016.05
1015.85
1015.64
1015.43
1015.22
1015
1014.77
1014.54
1014.3
1014.06
1013.81
1013.55
1013.29
1013.03
1012.75
1012.48
1012.2
1011.91
1011.62
1011.32
1011.02
1010.71
1010.38
1010.05
1009.7
1009.34
1008.97
1008.57
1008.16
1007.72
1007.26
1006.77
1006.26
1005.71
1005.14
1004.54
1003.91
1003.25
1002.56
1001.84
1001.09
1000.32
999.53
998.718
997.889
997.046
996.194
995.336
994.476
993.618
992.766
991.923
991.092
990.278
989.483
988.709
987.96
987.236
986.539
985.871
985.232
984.622
984.042
983.491
982.969
982.476
982.008
981.567
981.15
980.756
980.384
980.032
979.699
979.383
979.084
978.801
978.531
978.276
978.033
977.802
977.582
977.372
977.171
976.98
976.798
976.623
976.457
976.299
976.148
976.006
975.872
975.747
975.631
975.523
975.427
975.34
975.263
975.197
975.142
975.098
975.064
975.041
975.028
975.024
975.029
975.041
975.061
975.087
975.118
975.153
975.19
975.23
975.27
975.311
975.351
975.389
975.425
975.458
975.487
975.513
975.535
975.552
975.565
975.573
975.577
975.576
975.571
975.562
975.549
975.534
975.515
975.494
975.472
975.448
975.424
975.399
975.375
975.352
975.33
975.311
975.295
975.284
975.279
975.28
975.291
975.311
975.343
975.389
975.452
975.53
975.629
975.747
975.887
976.05
976.238
976.448
976.684
976.943
977.227
977.532
977.859
978.206
978.572
978.954
979.352
979.76
980.18
980.608
981.042
981.479
981.918
982.356
982.793
983.224
983.651
984.07
984.481
984.882
985.273
985.652
986.019
986.372
986.713
987.039
987.351
987.648
987.931
988.199
988.453
988.691
988.916
989.126
989.323
989.506
989.676
989.834
989.979
990.113
990.237
990.349
990.452
990.546
990.633
990.71
990.782
990.847
990.907
990.961
991.011
991.056
991.098
991.137
991.173
991.206
991.237
991.265
991.291
991.316
991.338
991.358
991.377
991.394
991.41
991.424
991.438
991.449
991.46
991.469
991.477
991.484
991.489
991.492
991.492
991.49
991.484
991.473
991.458
991.437
991.411
991.377
991.337
991.289
991.234
991.171
991.102
991.025
990.941
990.852
990.758
990.658
990.556
990.449
990.341
990.231
990.12
990.007
989.895
989.783
989.671
989.558
989.448
989.337
989.226
989.115
989.008
988.898
988.785
988.683
988.585
988.468
988.368
988.303
988.209
988.104
988.089
988.084
988.026
988.061
988.202
988.32
988.49
988.802
989.178
989.705
1018.24
1018.23
1018.2
1018.13
1018.02
1017.95
1017.8
1017.64
1017.53
1017.36
1017.18
1017.03
1016.87
1016.69
1016.51
1016.35
1016.16
1015.97
1015.79
1015.59
1015.39
1015.18
1014.97
1014.75
1014.52
1014.28
1014.04
1013.79
1013.53
1013.27
1013
1012.73
1012.45
1012.17
1011.87
1011.58
1011.27
1010.95
1010.63
1010.29
1009.94
1009.57
1009.18
1008.78
1008.35
1007.9
1007.42
1006.92
1006.39
1005.83
1005.23
1004.61
1003.95
1003.26
1002.54
1001.79
1001.02
1000.22
999.39
998.543
997.681
996.805
995.92
995.03
994.14
993.253
992.374
991.505
990.652
989.818
989.006
988.218
987.457
986.725
986.023
985.352
984.713
984.106
983.531
982.988
982.476
981.993
981.539
981.111
980.71
980.332
979.976
979.64
979.324
979.025
978.743
978.475
978.221
977.98
977.751
977.532
977.323
977.123
976.932
976.749
976.573
976.405
976.243
976.089
975.942
975.802
975.67
975.546
975.431
975.324
975.228
975.142
975.066
975
974.946
974.903
974.871
974.85
974.839
974.839
974.848
974.866
974.891
974.924
974.962
975.005
975.052
975.102
975.153
975.205
975.257
975.308
975.358
975.405
975.449
975.49
975.526
975.559
975.587
975.61
975.629
975.643
975.653
975.658
975.659
975.656
975.65
975.641
975.63
975.617
975.601
975.585
975.569
975.552
975.536
975.522
975.511
975.503
975.5
975.504
975.516
975.537
975.57
975.616
975.678
975.756
975.853
975.971
976.11
976.272
976.458
976.667
976.901
977.159
977.441
977.745
978.072
978.418
978.783
979.164
979.56
979.968
980.388