# vtk DataFile Version 2.0
LBE mesh
ASCII
DATASET STRUCTURED_POINTS
DIMENSIONS 300 100 1
ASPECT_RATIO 1 1 1
ORIGIN 0 0 0
POINT_DATA 30000
SCALARS rho double 1
LOOKUP_TABLE default
1045.62
1013.8
1013.09
1019.63
1017.82
1013.91
1013.74
1014.28
1013.53
1012.75
1012.61
1012.47
1012.12
1011.83
1011.66
1011.47
1011.25
1011.05
1010.87
1010.68
1010.49
1010.31
1010.12
1009.93
1009.73
1009.54
1009.33
1009.12
1008.91
1008.68
1008.45
1008.21
1007.96
1007.7
1007.43
1007.15
1006.85
1006.55
1006.23
1005.9
1005.55
1005.19
1004.81
1004.41
1004
1003.57
1003.13
1002.67
1002.19
1001.69
1001.17
1000.64
1000.08
999.516
998.93
998.328
997.71
997.078
996.432
995.773
995.103
994.423
993.735
993.039
992.339
991.634
990.928
990.221
989.517
988.816
988.12
987.432
986.752
986.083
985.426
984.781
984.152
983.539
982.942
982.363
981.802
981.261
980.739
980.236
979.754
979.292
978.85
978.428
978.025
977.642
977.279
976.934
976.607
976.299
976.007
975.732
975.472
975.228
974.999
974.785
974.583
974.395
974.219
974.055
973.902
973.76
973.629
973.506
973.394
973.29
973.194
973.107
973.027
972.954
972.888
972.828
972.774
972.726
972.683
972.646
972.613
972.584
972.56
972.539
972.522
972.509
972.498
972.49
972.485
972.482
972.481
972.483
972.486
972.492
972.499
972.507
972.517
972.529
972.542
972.557
972.573
972.591
972.612
972.635
972.66
972.689
972.72
972.757
972.797
972.842
972.894
972.951
973.016
973.088
973.169
973.26
973.36
973.471
973.593
973.728
973.875
974.035
974.207
974.394
974.594
974.807
975.034
975.274
975.527
975.792
976.068
976.355
976.651
976.957
977.271
977.592
977.918
978.248
978.582
978.917
979.254
979.59
979.925
980.257
980.585
980.909
981.226
981.537
981.84
982.135
982.42
982.696
982.961
983.215
983.458
983.69
983.909
984.116
984.311
984.493
984.663
984.82
984.964
985.096
985.215
985.322
985.416
985.497
985.567
985.623
985.667
985.698
985.716
985.721
985.713
985.691
985.654
985.603
985.537
985.455
985.358
985.244
985.113
984.965
984.799
984.617
984.416
984.197
983.962
983.709
983.44
983.155
982.855
982.541
982.214
981.876
981.527
981.17
980.807
980.439
980.068
979.697
979.327
978.961
978.6
978.247
977.904
977.572
977.255
976.953
976.668
976.401
976.154
975.928
975.723
975.541
975.381
975.243
975.128
975.035
974.962
974.91
974.878
974.862
974.862
974.876
974.902
974.937
974.979
975.026
975.076
975.124
975.17
975.21
975.241
975.262
975.27
975.261
975.234
975.188
975.12
975.024
974.9
974.755
974.575
974.341
974.091
973.829
973.448
972.983
972.656
972.201
971.182
970.484
970.606
968.688
965.018
967.116
967.971
945.057
1028.44
1024.89
1020.81
1015.61
1015.82
1016.01
1014.85
1013.7
1013.49
1013.26
1012.81
1012.43
1012.22
1011.99
1011.73
1011.51
1011.31
1011.11
1010.91
1010.72
1010.53
1010.34
1010.14
1009.95
1009.75
1009.55
1009.34
1009.12
1008.9
1008.68
1008.44
1008.2
1007.95
1007.68
1007.41
1007.13
1006.83
1006.52
1006.2
1005.87
1005.52
1005.15
1004.77
1004.37
1003.96
1003.53
1003.09
1002.62
1002.14
1001.64
1001.12
1000.59
1000.04
999.467
998.881
998.279
997.662
997.03
996.385
995.728
995.059
994.381
993.694
993.001
992.302
991.6
990.896
990.193
989.491
988.793
988.1
987.415
986.739
986.073
985.419
984.778
984.152
983.542
982.948
982.372
981.815
981.276
980.757
980.257
979.777
979.318
978.878
978.458
978.058
977.677
977.315
976.971
976.646
976.338
976.047
975.773
975.515
975.272
975.044
974.83
974.629
974.441
974.266
974.102
973.95
973.808
973.677
973.555
973.443
973.339
973.244
973.157
973.077
973.004
972.938
972.878
972.824
972.776
972.734
972.696
972.663
972.635
972.61
972.59
972.573
972.559
972.548
972.54
972.535
972.531
972.53
972.531
972.534
972.539
972.545
972.553
972.563
972.574
972.586
972.6
972.616
972.633
972.653
972.675
972.7
972.728
972.759
972.794
972.834
972.879
972.929
972.985
973.049
973.12
973.2
973.289
973.388
973.498
973.619
973.752
973.897
974.055
974.226
974.41
974.608
974.82
975.044
975.282
975.533
975.795
976.069
976.354
976.649
976.953
977.264
977.583
977.907
978.236
978.568
978.902
979.237
979.573
979.906
980.237
980.564
980.887
981.204
981.514
981.817
982.111
982.396
982.672
982.937
983.192
983.435
983.667
983.886
984.094
984.289
984.472
984.642
984.799
984.944
985.076
985.196
985.303
985.397
985.479
985.549
985.606
985.65
985.682
985.701
985.706
985.698
985.677
985.642
985.591
985.527
985.447
985.351
985.238
985.11
984.964
984.8
984.62
984.421
984.206
983.973
983.723
983.456
983.173
982.876
982.564
982.24
981.903
981.557
981.202
980.84
980.473
980.103
979.732
979.362
978.996
978.635
978.281
977.937
977.604
977.286
976.982
976.694
976.426
976.176
975.947
975.74
975.554
975.391
975.25
975.131
975.034
974.959
974.903
974.867
974.848
974.845
974.855
974.878
974.91
974.95
974.994
975.041
975.088
975.131
975.169
975.199
975.217
975.223
975.214
975.186
975.136
975.065
974.97
974.846
974.689
974.505
974.291
974.019
973.703
973.384
972.98
972.424
971.904
971.447
970.466
969.204
968.736
967.665
963.677
960.074
958.266
1020.3
1025.16
1020.49
1016.19
1016.46
1016.2
1014.83
1013.91
1013.73
1013.41
1012.91
1012.55
1012.33
1012.08
1011.81
1011.58
1011.38
1011.17
1010.96
1010.76
1010.57
1010.37
1010.17
1009.97
1009.77
1009.57
1009.36
1009.14
1008.92
1008.69
1008.45
1008.2
1007.95
1007.68
1007.41
1007.12
1006.82
1006.51
1006.19
1005.85
1005.5
1005.13
1004.75
1004.35
1003.94
1003.51
1003.06
1002.59
1002.11
1001.61
1001.09
1000.55
1000
999.431
998.844
998.241
997.622
996.99
996.344
995.686
995.017
994.338
993.651
992.958
992.26
991.558
990.855
990.152
989.451
988.754
988.063
987.379
986.705
986.041
985.389
984.75
984.127
983.519
982.928
982.355
981.8
981.264
980.747
980.25
979.773
979.316
978.879
978.461
978.064
977.685
977.326
976.984
976.661
976.355
976.066
975.794
975.537
975.296
975.069
974.856
974.657
974.47
974.296
974.133
973.982
973.841
973.711
973.59
973.478
973.375
973.281
973.194
973.115
973.042
972.977
972.918
972.865
972.817
972.775
972.738
972.706
972.677
972.653
972.633
972.616
972.602
972.591
972.583
972.578
972.575
972.573
972.575
972.578
972.581
972.588
972.595
972.604
972.614
972.626
972.64
972.655
972.672
972.691
972.712
972.735
972.762
972.792
972.826
972.865
972.908
972.957
973.012
973.074
973.144
973.222
973.309
973.407
973.514
973.633
973.764
973.907
974.063
974.232
974.414
974.61
974.82
975.043
975.279
975.528
975.789
976.062
976.345
976.639
976.941
977.252
977.57
977.893
978.221
978.553
978.887
979.222
979.557
979.891
980.222
980.549
980.872
981.189
981.5
981.803
982.098
982.383
982.66
982.925
983.18
983.424
983.657
983.877
984.085
984.281
984.464
984.634
984.792
984.937
985.07
985.19
985.297
985.392
985.475
985.545
985.602
985.647
985.68
985.699
985.706
985.699
985.679
985.645
985.597
985.533
985.455
985.361
985.251
985.125
984.981
984.82
984.642
984.446
984.233
984.002
983.755
983.49
983.209
982.913
982.603
982.279
981.943
981.597
981.242
980.88
980.512
980.141
979.769
979.398
979.029
978.666
978.309
977.963
977.627
977.305
976.998
976.707
976.435
976.182
975.949
975.738
975.549
975.383
975.238
975.117
975.017
974.939
974.881
974.842
974.821
974.817
974.826
974.847
974.879
974.918
974.962
975.009
975.055
975.099
975.137
975.167
975.187
975.193
975.184
975.157
975.109
975.036
974.941
974.821
974.662
974.47
974.263
974.006
973.661
973.324
973.003
972.436
971.734
971.445
970.848
968.983
968.223
969.137
965.051
959.782
963.973
1020.02
1018.78
1018.26
1019.48
1016.98
1014.9
1014.88
1014.83
1013.94
1013.26
1013.06
1012.82
1012.44
1012.13
1011.92
1011.7
1011.46
1011.24
1011.04
1010.83
1010.63
1010.42
1010.22
1010.02
1009.81
1009.6
1009.39
1009.17
1008.95
1008.71
1008.47
1008.22
1007.97
1007.7
1007.42
1007.13
1006.83
1006.52
1006.19
1005.86
1005.5
1005.13
1004.75
1004.35
1003.93
1003.5
1003.05
1002.58
1002.09
1001.59
1001.07
1000.53
999.976
999.402
998.812
998.207
997.586
996.95
996.302
995.641
994.969
994.288
993.599
992.903
992.202
991.498
990.794
990.089
989.388
988.69
987.998
987.314
986.64
985.976
985.326
984.688
984.066
983.46
982.871
982.3
981.748
981.215
980.701
980.207
979.733
979.279
978.846
978.432
978.037
977.662
977.305
976.967
976.647
976.344
976.058
975.788
975.534
975.294
975.07
974.859
974.661
974.477
974.304
974.143
973.993
973.854
973.725
973.605
973.495
973.393
973.3
973.214
973.136
973.064
973
972.942
972.889
972.843
972.802
972.765
972.733
972.706
972.683
972.663
972.647
972.634
972.623
972.616
972.611
972.608
972.607
972.609
972.612
972.616
972.622
972.629
972.638
972.648
972.66
972.672
972.687
972.703
972.721
972.741
972.764
972.79
972.818
972.851
972.888
972.93
972.976
973.03
973.09
973.157
973.234
973.319
973.414
973.519
973.636
973.764
973.905
974.059
974.226
974.407
974.602
974.809
975.031
975.266
975.514
975.774
976.046
976.33
976.623
976.925
977.236
977.554
977.878
978.207
978.539
978.874
979.21
979.546
979.88
980.212
980.541
980.864
981.182
981.494
981.798
982.094
982.381
982.658
982.925
983.181
983.425
983.659
983.88
984.088
984.285
984.469
984.64
984.798
984.944
985.077
985.198
985.306
985.401
985.484
985.554
985.612
985.658
985.691
985.712
985.72
985.715
985.696
985.664
985.617
985.556
985.48
985.389
985.281
985.157
985.016
984.858
984.682
984.489
984.278
984.049
983.803
983.539
983.26
982.964
982.654
982.33
981.993
981.646
981.289
980.925
980.555
980.181
979.805
979.43
979.057
978.69
978.329
977.979
977.638
977.312
977
976.705
976.428
976.171
975.935
975.72
975.527
975.357
975.211
975.087
974.985
974.905
974.845
974.806
974.784
974.779
974.789
974.811
974.844
974.884
974.93
974.978
975.027
975.073
975.114
975.147
975.169
975.178
975.171
975.145
975.1
975.033
974.937
974.815
974.67
974.483
974.251
974.009
973.732
973.334
972.917
972.594
972.028
971.14
970.718
970.368
968.579
967.069
967.319
966.673
965.169
1020.02
1017.86
1017.81
1017.72
1016.27
1015.88
1015.34
1014.51
1013.93
1013.66
1013.3
1012.88
1012.55
1012.31
1012.06
1011.8
1011.56
1011.35
1011.13
1010.92
1010.71
1010.51
1010.3
1010.09
1009.88
1009.67
1009.45
1009.23
1009
1008.76
1008.52
1008.27
1008.01
1007.74
1007.46
1007.17
1006.87
1006.55
1006.22
1005.88
1005.53
1005.15
1004.77
1004.36
1003.95
1003.51
1003.05
1002.58
1002.09
1001.59
1001.06
1000.52
999.958
999.38
998.786
998.175
997.549
996.908
996.254
995.588
994.911
994.225
993.53
992.829
992.124
991.415
990.706
989.998
989.293
988.592
987.898
987.212
986.536
985.872
985.221
984.584
983.962
983.357
982.77
982.202
981.652
981.122
980.612
980.121
979.651
979.201
978.771
978.362
977.971
977.6
977.248
976.914
976.598
976.299
976.016
975.75
975.499
975.263
975.042
974.833
974.638
974.456
974.286
974.127
973.979
973.841
973.714
973.596
973.487
973.387
973.295
973.21
973.133
973.063
973
972.943
972.892
972.846
972.806
972.771
972.74
972.714
972.692
972.674
972.659
972.647
972.638
972.631
972.627
972.625
972.625
972.628
972.631
972.636
972.643
972.65
972.659
972.67
972.681
972.694
972.708
972.724
972.741
972.761
972.782
972.807
972.834
972.866
972.901
972.941
972.986
973.037
973.095
973.161
973.235
973.318
973.41
973.513
973.628
973.755
973.894
974.046
974.211
974.391
974.584
974.791
975.012
975.246
975.494
975.754
976.027
976.31
976.604
976.908
977.22
977.539
977.864
978.194
978.528
978.864
979.201
979.539
979.875
980.208
980.539
980.864
981.184
981.497
981.803
982.1
982.388
982.667
982.935
983.192
983.438
983.672
983.894
984.104
984.301
984.486
984.657
984.817
984.963
985.097
985.218
985.326
985.422
985.505
985.577
985.635
985.682
985.716
985.738
985.747
985.744
985.727
985.697
985.652
985.594
985.521
985.432
985.327
985.205
985.067
984.911
984.738
984.547
984.337
984.11
983.865
983.602
983.322
983.026
982.715
982.39
982.051
981.701
981.341
980.972
980.598
980.22
979.839
979.459
979.081
978.708
978.341
977.985
977.639
977.307
976.989
976.689
976.408
976.146
975.905
975.687
975.49
975.317
975.168
975.042
974.939
974.858
974.798
974.758
974.738
974.734
974.746
974.77
974.805
974.848
974.898
974.95
975.002
975.052
975.098
975.135
975.161
975.175
975.173
975.152
975.11
975.048
974.959
974.838
974.694
974.526
974.303
974.038
973.788
973.47
972.995
972.602
972.316
971.55
970.652
970.645
969.985
967.965
967.897
968.263
966.907
1017.92
1017.97
1017.58
1016.12
1016.29
1016.16
1015.01
1014.41
1014.27
1013.88
1013.33
1012.99
1012.77
1012.48
1012.17
1011.93
1011.71
1011.48
1011.25
1011.03
1010.82
1010.61
1010.4
1010.19
1009.98
1009.76
1009.54
1009.31
1009.08
1008.84
1008.6
1008.34
1008.08
1007.81
1007.53
1007.23
1006.93
1006.61
1006.28
1005.93
1005.57
1005.2
1004.81
1004.4
1003.98
1003.54
1003.08
1002.6
1002.11
1001.59
1001.06
1000.52
999.948
999.363
998.762
998.144
997.51
996.862
996.2
995.526
994.84
994.146
993.443
992.734
992.021
991.306
990.59
989.875
989.164
988.458
987.76
987.07
986.391
985.724
985.071
984.433
983.811
983.207
982.621
982.055
981.508
980.981
980.474
979.988
979.522
979.077
978.652
978.248
977.863
977.497
977.149
976.821
976.51
976.215
975.938
975.676
975.429
975.197
974.979
974.775
974.583
974.404
974.236
974.08
973.934
973.799
973.673
973.557
973.45
973.351
973.26
973.177
973.102
973.033
972.971
972.915
972.866
972.822
972.783
972.749
972.72
972.695
972.675
972.658
972.645
972.635
972.627
972.622
972.62
972.62
972.622
972.625
972.631
972.637
972.645
972.654
972.664
972.675
972.687
972.7
972.715
972.731
972.748
972.767
972.788
972.812
972.839
972.869
972.903
972.941
972.985
973.035
973.091
973.155
973.227
973.307
973.398
973.5
973.613
973.738
973.876
974.026
974.191
974.37
974.562
974.769
974.99
975.225
975.473
975.734
976.007
976.292
976.588
976.892
977.206
977.527
977.854
978.186
978.522
978.86
979.2
979.539
979.877
980.213
980.545
980.872
981.194
981.509
981.816
982.115
982.405
982.685
982.955
983.214
983.461
983.696
983.919
984.13
984.329
984.514
984.687
984.846
984.993
985.128
985.249
985.358
985.455
985.539
985.611
985.671
985.718
985.753
985.777
985.787
985.785
985.771
985.743
985.701
985.645
985.574
985.488
985.386
985.267
985.131
984.978
984.807
984.618
984.41
984.183
983.938
983.675
983.395
983.098
982.785
982.456
982.114
981.76
981.395
981.022
980.642
980.257
979.87
979.483
979.098
978.718
978.345
977.981
977.629
977.29
976.967
976.661
976.374
976.107
975.862
975.64
975.44
975.265
975.113
974.986
974.882
974.8
974.741
974.703
974.684
974.682
974.697
974.724
974.763
974.811
974.865
974.923
974.981
975.037
975.087
975.131
975.163
975.182
975.186
975.173
975.137
975.078
974.998
974.891
974.745
974.577
974.394
974.145
973.84
973.582
973.27
972.734
972.302
972.107
971.385
970.42
970.353
970.131
969.077
968.595
969.062
1016.87
1017.29
1016.84
1016.22
1016.06
1015.35
1015.01
1014.79
1014.25
1013.76
1013.5
1013.24
1012.89
1012.57
1012.34
1012.1
1011.85
1011.61
1011.39
1011.18
1010.96
1010.74
1010.53
1010.31
1010.1
1009.88
1009.65
1009.42
1009.19
1008.95
1008.7
1008.44
1008.18
1007.9
1007.62
1007.32
1007.01
1006.69
1006.36
1006.01
1005.65
1005.27
1004.87
1004.46
1004.03
1003.59
1003.12
1002.64
1002.14
1001.62
1001.08
1000.52
999.945
999.352
998.74
998.113
997.469
996.81
996.138
995.452
994.756
994.051
993.337
992.617
991.894
991.169
990.443
989.72
989
988.287
987.581
986.885
986.201
985.531
984.875
984.235
983.612
983.008
982.424
981.859
981.315
980.791
980.288
979.806
979.346
978.906
978.487
978.089
977.71
977.35
977.009
976.687
976.381
976.093
975.821
975.564
975.323
975.096
974.883
974.682
974.494
974.318
974.153
974
973.857
973.724
973.6
973.486
973.38
973.283
973.193
973.112
973.037
972.97
972.909
972.855
972.806
972.763
972.726
972.694
972.666
972.643
972.624
972.61
972.598
972.59
972.585
972.583
972.583
972.585
972.59
972.596
972.603
972.612
972.622
972.633
972.645
972.658
972.672
972.687
972.703
972.719
972.738
972.758
972.779
972.803
972.83
972.86
972.893
972.931
972.974
973.023
973.078
973.141
973.212
973.291
973.381
973.482
973.594
973.718
973.855
974.005
974.17
974.348
974.542
974.749
974.97
975.206
975.456
975.718
975.993
976.279
976.576
976.883
977.199
977.522
977.852
978.186
978.524
978.865
979.206
979.548
979.889
980.227
980.561
980.89
981.214
981.531
981.84
982.14
982.432
982.713
982.985
983.245
983.493
983.73
983.955
984.167
984.366
984.552
984.726
984.887
985.034
985.169
985.292
985.401
985.499
985.584
985.657
985.717
985.766
985.802
985.827
985.839
985.839
985.826
985.8
985.76
985.707
985.639
985.556
985.456
985.34
985.207
985.056
984.887
984.699
984.493
984.267
984.022
983.758
983.476
983.177
982.86
982.528
982.181
981.822
981.451
981.071
980.684
980.292
979.898
979.503
979.11
978.722
978.341
977.97
977.611
977.264
976.935
976.622
976.33
976.058
975.808
975.582
975.379
975.201
975.048
974.919
974.815
974.734
974.675
974.639
974.622
974.624
974.642
974.674
974.719
974.772
974.832
974.896
974.961
975.024
975.082
975.132
975.173
975.2
975.211
975.205
975.179
975.128
975.053
974.958
974.832
974.663
974.48
974.286
974.005
973.686
973.45
973.11
972.545
972.229
972.046
971.278
970.7
970.759
970.305
969.928
970.349
1016.6
1016.33
1016.12
1016.28
1015.67
1015.11
1015.05
1014.64
1014.16
1013.9
1013.64
1013.28
1012.97
1012.74
1012.5
1012.23
1011.99
1011.77
1011.55
1011.32
1011.1
1010.89
1010.68
1010.46
1010.24
1010.02
1009.79
1009.56
1009.32
1009.08
1008.83
1008.57
1008.3
1008.02
1007.74
1007.44
1007.12
1006.8
1006.46
1006.11
1005.74
1005.36
1004.96
1004.54
1004.1
1003.65
1003.18
1002.69
1002.18
1001.65
1001.1
1000.54
999.95
999.345
998.722
998.082
997.425
996.754
996.068
995.369
994.659
993.939
993.212
992.479
991.743
991.004
990.266
989.532
988.801
988.078
987.364
986.66
985.97
985.294
984.634
983.991
983.367
982.762
982.178
981.615
981.073
980.553
980.055
979.578
979.124
978.69
978.278
977.886
977.514
977.162
976.828
976.513
976.215
975.933
975.667
975.417
975.181
974.959
974.751
974.555
974.371
974.199
974.038
973.887
973.746
973.616
973.494
973.381
973.277
973.181
973.092
973.011
972.937
972.871
972.81
972.757
972.709
972.668
972.631
972.601
972.574
972.553
972.536
972.523
972.514
972.509
972.506
972.507
972.51
972.516
972.524
972.533
972.544
972.556
972.57
972.584
972.6
972.616
972.633
972.651
972.669
972.688
972.709
972.731
972.754
972.779
972.807
972.838
972.872
972.911
972.954
973.003
973.059
973.121
973.192
973.272
973.362
973.463
973.575
973.7
973.837
973.988
974.153
974.333
974.527
974.736
974.959
975.196
975.447
975.712
975.989
976.277
976.577
976.886
977.204
977.53
977.862
978.198
978.539
978.882
979.225
979.569
979.911
980.251
980.587
980.919
981.244
981.562
981.873
982.175
982.468
982.751
983.024
983.285
983.535
983.773
983.999
984.212
984.412
984.599
984.774
984.935
985.084
985.22
985.343
985.454
985.552
985.638
985.712
985.774
985.824
985.861
985.887
985.901
985.903
985.892
985.868
985.83
985.779
985.714
985.633
985.536
985.423
985.292
985.143
984.976
984.789
984.583
984.357
984.112
983.847
983.563
983.26
982.94
982.603
982.25
981.885
981.507
981.12
980.725
980.324
979.921
979.518
979.117
978.72
978.331
977.951
977.584
977.231
976.894
976.575
976.276
975.999
975.745
975.515
975.309
975.128
974.973
974.843
974.739
974.659
974.603
974.568
974.554
974.56
974.583
974.621
974.671
974.731
974.798
974.869
974.942
975.013
975.08
975.139
975.188
975.225
975.246
975.248
975.231
975.195
975.129
975.037
974.93
974.791
974.599
974.407
974.215
973.916
973.58
973.38
973.066
972.507
972.233
972.132
971.608
971.167
971.233
971.291
971.221
1016.14
1015.97
1015.87
1015.7
1015.34
1015.23
1014.85
1014.43
1014.25
1013.99
1013.62
1013.34
1013.13
1012.87
1012.59
1012.36
1012.15
1011.92
1011.69
1011.47
1011.26
1011.05
1010.83
1010.61
1010.39
1010.17
1009.94
1009.71
1009.48
1009.23
1008.98
1008.72
1008.45
1008.17
1007.88
1007.57
1007.26
1006.93
1006.59
1006.23
1005.86
1005.47
1005.06
1004.64
1004.2
1003.74
1003.26
1002.76
1002.24
1001.7
1001.14
1000.56
999.962
999.343
998.707
998.052
997.381
996.693
995.991
995.276
994.55
993.813
993.07
992.32
991.568
990.814
990.061
989.312
988.569
987.834
987.109
986.396
985.698
985.015
984.35
983.703
983.077
982.471
981.888
981.326
980.787
980.271
979.778
979.306
978.858
978.432
978.027
977.643
977.279
976.935
976.61
976.302
976.012
975.738
975.479
975.236
975.006
974.79
974.588
974.396
974.217
974.049
973.891
973.743
973.605
973.476
973.355
973.244
973.141
973.045
972.957
972.876
972.802
972.736
972.676
972.622
972.575
972.534
972.498
972.468
972.443
972.423
972.407
972.396
972.389
972.386
972.387
972.391
972.398
972.407
972.419
972.433
972.448
972.465
972.484
972.503
972.523
972.544
972.565
972.588
972.611
972.634
972.659
972.685
972.711
972.74
972.771
972.805
972.841
972.882
972.928
972.979
973.036
973.101
973.173
973.255
973.346
973.448
973.562
973.688
973.828
973.981
974.147
974.329
974.526
974.736
974.961
975.201
975.455
975.721
976.001
976.292
976.594
976.905
977.226
977.553
977.887
978.226
978.568
978.913
979.258
979.604
979.948
980.289
980.626
980.959
981.285
981.605
981.916
982.219
982.513
982.797
983.071
983.333
983.584
983.823
984.049
984.263
984.464
984.653
984.828
984.991
985.141
985.277
985.402
985.514
985.613
985.7
985.775
985.838
985.889
985.928
985.956
985.971
985.974
985.965
985.943
985.908
985.859
985.795
985.717
985.622
985.511
985.383
985.236
985.07
984.884
984.679
984.452
984.206
983.939
983.652
983.346
983.021
982.678
982.32
981.947
981.562
981.166
980.763
980.354
979.942
979.529
979.119
978.713
978.315
977.927
977.551
977.19
976.846
976.521
976.216
975.934
975.675
975.44
975.231
975.048
974.892
974.761
974.657
974.577
974.522
974.491
974.481
974.491
974.519
974.563
974.619
974.687
974.762
974.842
974.924
975.004
975.081
975.151
975.21
975.257
975.289
975.303
975.296
975.269
975.222
975.143
975.038
974.924
974.771
974.566
974.377
974.188
973.879
973.574
973.409
973.095
972.655
972.491
972.343
972.027
971.954
972.013
972.147
1015.62
1015.68
1015.61
1015.29
1015.21
1015.05
1014.66
1014.46
1014.24
1013.92
1013.66
1013.45
1013.2
1012.93
1012.72
1012.5
1012.27
1012.05
1011.84
1011.63
1011.42
1011.2
1010.99
1010.78
1010.56
1010.34
1010.11
1009.88
1009.64
1009.39
1009.14
1008.88
1008.61
1008.33
1008.03
1007.73
1007.41
1007.08
1006.73
1006.37
1005.99
1005.6
1005.19
1004.76
1004.31
1003.84
1003.35
1002.84
1002.31
1001.76
1001.19
1000.59
999.981
999.347
998.695
998.024
997.334
996.629
995.909
995.174
994.429
993.673
992.91
992.142
991.37
990.599
989.828
989.063
988.305
987.555
986.818
986.094
985.386
984.695
984.024
983.373
982.743
982.137
981.553
980.994
980.458
979.946
979.458
978.994
978.553
978.134
977.738
977.363
977.008
976.673
976.356
976.058
975.776
975.511
975.26
975.024
974.802
974.592
974.395
974.209
974.034
973.87
973.716
973.571
973.435
973.308
973.189
973.078
972.975
972.879
972.791
972.709
972.635
972.567
972.506
972.452
972.404
972.362
972.326
972.296
972.271
972.251
972.237
972.227
972.222
972.222
972.225
972.233
972.243
972.257
972.273
972.292
972.313
972.336
972.36
972.385
972.412
972.44
972.468
972.496
972.526
972.555
972.586
972.618
972.651
972.685
972.721
972.76
972.802
972.847
972.897
972.952
973.014
973.082
973.158
973.243
973.338
973.443
973.56
973.69
973.832
973.988
974.158
974.343
974.542
974.756
974.984
975.226
975.483
975.752
976.034
976.327
976.631
976.945
977.267
977.597
977.933
978.273
978.616
978.962
979.308
979.655
979.999
980.341
980.679
981.012
981.339
981.658
981.97
982.274
982.568
982.852
983.126
983.388
983.639
983.878
984.105
984.32
984.522
984.711
984.887
985.05
985.201
985.339
985.464
985.577
985.677
985.766
985.842
985.907
985.959
985.999
986.028
986.045
986.05
986.042
986.022
985.989
985.942
985.881
985.805
985.712
985.603
985.476
985.33
985.166
984.981
984.775
984.549
984.301
984.032
983.742
983.431
983.102
982.753
982.389
982.009
981.616
981.212
980.799
980.381
979.96
979.537
979.117
978.702
978.295
977.899
977.515
977.146
976.794
976.462
976.151
975.863
975.599
975.361
975.148
974.963
974.804
974.673
974.568
974.49
974.437
974.408
974.402
974.417
974.451
974.501
974.565
974.641
974.725
974.814
974.906
974.997
975.084
975.165
975.236
975.294
975.338
975.365
975.373
975.356
975.321
975.266
975.174
975.06
974.944
974.786
974.572
974.395
974.222
973.921
973.65
973.524
973.273
972.941
972.836
972.805
972.672
972.667
972.943
1015.33
1015.35
1015.27
1015.16
1015.04
1014.77
1014.61
1014.45
1014.14
1013.91
1013.73
1013.49
1013.24
1013.04
1012.83
1012.6
1012.39
1012.19
1011.98
1011.77
1011.56
1011.36
1011.15
1010.94
1010.72
1010.5
1010.28
1010.05
1009.81
1009.57
1009.31
1009.05
1008.78
1008.5
1008.2
1007.9
1007.58
1007.24
1006.89
1006.53
1006.14
1005.74
1005.32
1004.89
1004.43
1003.95
1003.45
1002.93
1002.39
1001.83
1001.24
1000.64
1000.01
999.356
998.686
997.996
997.287
996.561
995.82
995.065
994.297
993.519
992.734
991.944
991.151
990.358
989.569
988.784
988.008
987.243
986.491
985.754
985.035
984.336
983.657
983.001
982.369
981.761
981.178
980.62
980.088
979.581
979.1
978.643
978.21
977.801
977.414
977.049
976.704
976.379
976.073
975.784
975.512
975.256
975.014
974.786
974.571
974.369
974.178
973.998
973.828
973.668
973.517
973.375
973.241
973.115
972.997
972.886
972.782
972.686
972.597
972.514
972.438
972.368
972.306
972.249
972.199
972.156
972.118
972.087
972.061
972.041
972.026
972.018
972.014
972.015
972.021
972.031
972.046
972.064
972.085
972.109
972.136
972.166
972.197
972.23
972.265
972.301
972.337
972.374
972.412
972.451
972.49
972.53
972.571
972.614
972.658
972.705
972.754
972.807
972.864
972.926
972.994
973.068
973.15
973.241
973.342
973.452
973.575
973.709
973.856
974.016
974.191
974.379
974.583
974.8
975.032
975.277
975.537
975.809
976.093
976.389
976.695
977.01
977.334
977.665
978.001
978.342
978.686
979.031
979.378
979.724
980.068
980.409
980.746
981.078
981.404
981.724
982.035
982.337
982.63
982.914
983.187
983.449
983.699
983.938
984.165
984.379
984.581
984.771
984.947
985.111
985.262
985.401
985.527
985.641
985.742
985.832
985.91
985.975
986.029
986.071
986.102
986.12
986.127
986.121
986.103
986.072
986.027
985.967
985.892
985.802
985.694
985.569
985.424
985.26
985.076
984.87
984.643
984.394
984.122
983.829
983.515
983.18
982.826
982.455
982.067
981.666
981.254
980.833
980.405
979.975
979.543
979.114
978.689
978.273
977.868
977.475
977.098
976.739
976.4
976.083
975.789
975.52
975.278
975.062
974.873
974.713
974.581
974.476
974.398
974.347
974.322
974.319
974.339
974.379
974.436
974.508
974.592
974.685
974.785
974.887
974.99
975.089
975.182
975.266
975.338
975.394
975.434
975.457
975.458
975.433
975.392
975.33
975.23
975.112
974.999
974.838
974.632
974.477
974.313
974.049
973.843
973.728
973.537
973.362
973.316
973.305
973.357
973.556
1015.11
1015.07
1015.02
1015
1014.83
1014.66
1014.55
1014.32
1014.12
1013.95
1013.73
1013.51
1013.32
1013.12
1012.91
1012.7
1012.51
1012.31
1012.11
1011.91
1011.71
1011.51
1011.31
1011.1
1010.89
1010.67
1010.45
1010.22
1009.99
1009.74
1009.49
1009.23
1008.96
1008.68
1008.38
1008.07
1007.75
1007.41
1007.06
1006.69
1006.31
1005.9
1005.48
1005.03
1004.57
1004.08
1003.57
1003.04
1002.48
1001.91
1001.31
1000.68
1000.04
999.37
998.68
997.969
997.239
996.49
995.726
994.946
994.154
993.352
992.542
991.727
990.91
990.094
989.282
988.476
987.68
986.897
986.128
985.377
984.646
983.937
983.25
982.589
981.953
981.343
980.762
980.207
979.679
979.178
978.704
978.255
977.832
977.433
977.056
976.702
976.369
976.055
975.76
975.483
975.222
974.976
974.744
974.525
974.319
974.124
973.94
973.766
973.601
973.445
973.297
973.158
973.026
972.901
972.783
972.672
972.568
972.47
972.379
972.294
972.215
972.143
972.077
972.018
971.965
971.918
971.878
971.844
971.816
971.795
971.779
971.77
971.766
971.769
971.776
971.789
971.807
971.829
971.855
971.885
971.919
971.956
971.995
972.037
972.081
972.126
972.173
972.221
972.27
972.32
972.37
972.421
972.474
972.527
972.583
972.64
972.7
972.763
972.83
972.902
972.979
973.062
973.153
973.252
973.36
973.479
973.608
973.749
973.903
974.07
974.25
974.443
974.651
974.873
975.109
975.358
975.621
975.895
976.182
976.48
976.787
977.104
977.428
977.759
978.096
978.436
978.779
979.124
979.469
979.813
980.156
980.495
980.83
981.16
981.484
981.801
982.11
982.41
982.702
982.983
983.255
983.515
983.764
984.001
984.227
984.44
984.641
984.83
985.006
985.17
985.321
985.46
985.587
985.701
985.804
985.895
985.973
986.041
986.096
986.139
986.172
986.192
986.2
986.196
986.18
986.15
986.107
986.049
985.976
985.887
985.781
985.656
985.513
985.35
985.165
984.96
984.731
984.481
984.207
983.912
983.593
983.254
982.894
982.517
982.122
981.714
981.293
980.863
980.427
979.987
979.546
979.108
978.675
978.249
977.835
977.435
977.05
976.683
976.337
976.013
975.714
975.44
975.192
974.972
974.781
974.619
974.485
974.38
974.304
974.255
974.231
974.233
974.258
974.304
974.368
974.448
974.541
974.644
974.754
974.869
974.983
975.095
975.201
975.299
975.385
975.457
975.511
975.547
975.566
975.56
975.529
975.484
975.42
975.314
975.199
975.094
974.938
974.748
974.617
974.475
974.259
974.106
974.03
973.912
973.818
973.841
973.917
974.066
1014.89
1014.89
1014.86
1014.78
1014.68
1014.6
1014.43
1014.25
1014.12
1013.93
1013.73
1013.56
1013.38
1013.18
1012.99
1012.81
1012.62
1012.42
1012.24
1012.05
1011.85
1011.66
1011.46
1011.26
1011.05
1010.84
1010.62
1010.4
1010.16
1009.92
1009.68
1009.42
1009.15
1008.86
1008.57
1008.26
1007.94
1007.6
1007.24
1006.87
1006.48
1006.07
1005.64
1005.19
1004.71
1004.22
1003.7
1003.15
1002.59
1002
1001.38
1000.74
1000.08
999.387
998.676
997.943
997.189
996.416
995.625
994.819
994
993.17
992.333
991.491
990.647
989.805
988.967
988.138
987.32
986.516
985.729
984.963
984.217
983.497
982.802
982.135
981.496
980.885
980.305
979.753
979.23
978.737
978.271
977.832
977.42
977.032
976.668
976.326
976.006
975.705
975.423
975.158
974.909
974.674
974.453
974.244
974.047
973.86
973.684
973.516
973.356
973.205
973.061
972.925
972.794
972.671
972.553
972.441
972.336
972.236
972.142
972.054
971.971
971.895
971.825
971.762
971.704
971.654
971.609
971.572
971.541
971.516
971.499
971.488
971.483
971.485
971.494
971.508
971.529
971.554
971.585
971.621
971.662
971.706
971.755
971.806
971.86
971.917
971.975
972.036
972.098
972.161
972.225
972.29
972.357
972.424
972.494
972.565
972.639
972.716
972.796
972.88
972.97
973.065
973.168
973.278
973.397
973.526
973.664
973.814
973.976
974.151
974.338
974.538
974.752
974.979
975.219
975.473
975.738
976.016
976.305
976.604
976.912
977.229
977.553
977.884
978.219
978.558
978.899
979.241
979.584