# vtk DataFile Version 2.0
LBE mesh
ASCII
DATASET STRUCTURED_POINTS
DIMENSIONS 300 100 1
ASPECT_RATIO 1 1 1
ORIGIN 0 0 0
POINT_DATA 30000
SCALARS rho double 1
LOOKUP_TABLE default
1045.29
1013.41
1012.7
1019.24
1017.42
1013.5
1013.31
1013.84
1013.09
1012.3
1012.15
1012
1011.64
1011.35
1011.17
1010.97
1010.74
1010.53
1010.35
1010.15
1009.95
1009.76
1009.57
1009.37
1009.16
1008.96
1008.75
1008.53
1008.31
1008.08
1007.84
1007.59
1007.33
1007.07
1006.79
1006.5
1006.2
1005.89
1005.56
1005.22
1004.86
1004.49
1004.11
1003.71
1003.29
1002.85
1002.4
1001.93
1001.44
1000.94
1000.41
999.872
999.314
998.739
998.148
997.54
996.917
996.281
995.631
994.969
994.296
993.614
992.924
992.228
991.527
990.823
990.117
989.413
988.711
988.013
987.322
986.638
985.964
985.301
984.652
984.016
983.396
982.792
982.205
981.637
981.089
980.559
980.05
979.562
979.093
978.646
978.219
977.813
977.427
977.061
976.714
976.386
976.077
975.786
975.512
975.255
975.014
974.789
974.578
974.382
974.2
974.03
973.873
973.729
973.595
973.472
973.359
973.257
973.163
973.078
973.002
972.933
972.873
972.819
972.772
972.732
972.697
972.669
972.645
972.627
972.613
972.604
972.599
972.597
972.599
972.605
972.614
972.626
972.64
972.658
972.677
972.699
972.723
972.749
972.777
972.806
972.838
972.872
972.908
972.946
972.987
973.03
973.077
973.126
973.179
973.236
973.298
973.365
973.437
973.516
973.601
973.695
973.796
973.907
974.026
974.156
974.297
974.45
974.613
974.789
974.978
975.179
975.392
975.619
975.858
976.109
976.371
976.646
976.931
977.225
977.529
977.841
978.16
978.486
978.816
979.15
979.487
979.825
980.163
980.501
980.837
981.17
981.498
981.822
982.139
982.449
982.751
983.044
983.328
983.602
983.864
984.116
984.355
984.583
984.798
985.001
985.19
985.367
985.53
985.681
985.818
985.942
986.053
986.15
986.235
986.306
986.364
986.408
986.439
986.457
986.461
986.45
986.425
986.386
986.331
986.26
986.174
986.07
985.95
985.812
985.656
985.482
985.289
985.078
984.848
984.601
984.335
984.051
983.751
983.434
983.103
982.757
982.399
982.029
981.651
981.264
980.871
980.475
980.077
979.679
979.284
978.894
978.511
978.136
977.774
977.424
977.089
976.771
976.472
976.192
975.933
975.695
975.48
975.288
975.119
974.972
974.848
974.746
974.665
974.604
974.561
974.535
974.524
974.527
974.54
974.563
974.593
974.626
974.661
974.696
974.728
974.754
974.773
974.781
974.778
974.76
974.727
974.675
974.604
974.512
974.399
974.258
974.091
973.905
973.684
973.414
973.13
972.838
972.431
971.944
971.598
971.129
970.103
969.402
969.521
967.608
963.96
966.063
966.925
944.126
1028.09
1024.52
1020.43
1015.21
1015.41
1015.59
1014.42
1013.27
1013.05
1012.81
1012.35
1011.96
1011.75
1011.51
1011.24
1011.01
1010.81
1010.6
1010.39
1010.19
1009.99
1009.79
1009.59
1009.38
1009.18
1008.97
1008.75
1008.53
1008.31
1008.07
1007.83
1007.58
1007.32
1007.05
1006.77
1006.48
1006.18
1005.86
1005.53
1005.19
1004.83
1004.46
1004.07
1003.67
1003.25
1002.81
1002.36
1001.89
1001.4
1000.89
1000.37
999.825
999.267
998.691
998.1
997.492
996.871
996.234
995.585
994.924
994.253
993.572
992.884
992.19
991.491
990.789
990.086
989.385
988.685
987.991
987.303
986.622
985.952
985.293
984.646
984.014
983.397
982.796
982.213
981.648
981.102
980.576
980.07
979.584
979.118
978.673
978.249
977.845
977.46
977.096
976.751
976.425
976.117
975.827
975.554
975.298
975.058
974.834
974.624
974.429
974.247
974.078
973.922
973.777
973.644
973.521
973.409
973.307
973.213
973.129
973.053
972.985
972.924
972.87
972.824
972.783
972.749
972.72
972.696
972.678
972.664
972.655
972.65
972.648
972.65
972.656
972.664
972.676
972.69
972.707
972.726
972.747
972.77
972.795
972.823
972.852
972.883
972.916
972.951
972.989
973.029
973.071
973.117
973.165
973.218
973.274
973.335
973.401
973.472
973.55
973.634
973.727
973.827
973.936
974.055
974.183
974.322
974.473
974.635
974.809
974.996
975.195
975.406
975.631
975.867
976.116
976.377
976.649
976.932
977.225
977.526
977.836
978.154
978.477
978.805
979.138
979.473
979.81
980.147
980.483
980.818
981.15
981.478
981.8
982.117
982.426
982.728
983.021
983.304
983.578
983.841
984.092
984.332
984.56
984.776
984.978
985.168
985.345
985.509
985.66
985.797
985.922
986.033
986.131
986.215
986.287
986.345
986.39
986.422
986.44
986.444
986.434
986.41
986.371
986.318
986.248
986.163
986.061
985.943
985.807
985.653
985.481
985.29
985.082
984.855
984.61
984.347
984.066
983.768
983.454
983.125
982.782
982.426
982.058
981.681
981.296
980.905
980.509
980.112
979.715
979.32
978.93
978.546
978.171
977.807
977.456
977.119
976.799
976.497
976.215
975.953
975.713
975.495
975.3
975.127
974.977
974.85
974.745
974.66
974.595
974.549
974.52
974.506
974.506
974.517
974.537
974.564
974.595
974.629
974.662
974.692
974.716
974.734
974.741
974.737
974.718
974.683
974.631
974.559
974.465
974.349
974.209
974.042
973.843
973.619
973.368
973.063
972.717
972.371
971.945
971.371
970.837
970.37
969.385
968.126
967.659
966.599
962.637
959.06
957.276
1019.94
1024.78
1020.1
1015.79
1016.05
1015.78
1014.41
1013.47
1013.29
1012.96
1012.45
1012.08
1011.86
1011.6
1011.32
1011.08
1010.87
1010.65
1010.44
1010.23
1010.03
1009.82
1009.62
1009.41
1009.2
1008.99
1008.77
1008.55
1008.32
1008.08
1007.84
1007.58
1007.32
1007.05
1006.77
1006.47
1006.17
1005.85
1005.52
1005.17
1004.82
1004.44
1004.05
1003.65
1003.23
1002.79
1002.33
1001.86
1001.37
1000.86
1000.33
999.792
999.232
998.655
998.063
997.454
996.831
996.194
995.544
994.883
994.211
993.53
992.841
992.147
991.449
990.748
990.045
989.344
988.646
987.953
987.266
986.587
985.919
985.261
984.617
983.987
983.372
982.774
982.194
981.631
981.088
980.564
980.061
979.578
979.115
978.673
978.251
977.849
977.468
977.106
976.763
976.439
976.133
975.845
975.574
975.32
975.081
974.858
974.651
974.456
974.276
974.108
973.953
973.809
973.677
973.555
973.444
973.342
973.25
973.166
973.091
973.023
972.963
972.91
972.864
972.824
972.79
972.761
972.738
972.72
972.707
972.698
972.693
972.691
972.693
972.699
972.708
972.719
972.733
972.749
972.768
972.789
972.812
972.837
972.864
972.892
972.923
972.955
972.99
973.026
973.066
973.107
973.152
973.199
973.25
973.306
973.365
973.43
973.5
973.576
973.659
973.749
973.848
973.955
974.072
974.199
974.336
974.485
974.645
974.817
975.002
975.198
975.408
975.631
975.866
976.113
976.372
976.643
976.924
977.215
977.516
977.825
978.141
978.464
978.792
979.124
979.458
979.795
980.132
980.468
980.803
981.135
981.462
981.785
982.102
982.412
982.714
983.007
983.291
983.565
983.829
984.081
984.321
984.55
984.766
984.969
985.16
985.337
985.501
985.653
985.791
985.915
986.027
986.125
986.21
986.282
986.34
986.386
986.418
986.437
986.442
986.433
986.411
986.373
986.321
986.253
986.17
986.07
985.954
985.82
985.668
985.499
985.311
985.105
984.881
984.638
984.377
984.098
983.803
983.49
983.163
982.821
982.465
982.098
981.721
981.336
980.944
980.547
980.149
979.75
979.353
978.961
978.574
978.196
977.829
977.475
977.136
976.813
976.508
976.222
975.956
975.713
975.491
975.293
975.117
974.964
974.834
974.726
974.639
974.572
974.524
974.494
974.479
974.478
974.488
974.508
974.534
974.565
974.599
974.632
974.663
974.688
974.706
974.714
974.711
974.693
974.659
974.607
974.536
974.443
974.325
974.185
974.021
973.821
973.588
973.344
973.053
972.678
972.313
971.969
971.383
970.668
970.369
969.766
967.904
967.149
968.061
964
958.766
962.952
1019.66
1018.4
1017.88
1019.08
1016.58
1014.48
1014.46
1014.4
1013.5
1012.81
1012.6
1012.36
1011.97
1011.65
1011.43
1011.2
1010.95
1010.72
1010.51
1010.3
1010.09
1009.88
1009.67
1009.46
1009.25
1009.03
1008.81
1008.58
1008.35
1008.11
1007.86
1007.61
1007.34
1007.07
1006.78
1006.49
1006.18
1005.86
1005.53
1005.18
1004.82
1004.44
1004.05
1003.64
1003.22
1002.78
1002.32
1001.85
1001.35
1000.84
1000.32
999.77
999.208
998.628
998.033
997.421
996.795
996.156
995.503
994.839
994.164
993.48
992.789
992.092
991.392
990.689
989.985
989.282
988.583
987.889
987.201
986.523
985.854
985.197
984.554
983.925
983.312
982.716
982.137
981.577
981.037
980.516
980.016
979.536
979.076
978.637
978.219
977.82
977.442
977.083
976.744
976.422
976.12
975.834
975.566
975.315
975.079
974.858
974.652
974.46
974.281
974.115
973.962
973.82
973.689
973.569
973.459
973.358
973.267
973.184
973.11
973.043
972.984
972.932
972.887
972.847
972.814
972.787
972.765
972.747
972.735
972.726
972.722
972.721
972.724
972.73
972.739
972.751
972.765
972.782
972.801
972.822
972.845
972.87
972.896
972.924
972.955
972.986
973.021
973.057
973.095
973.135
973.179
973.225
973.275
973.329
973.387
973.45
973.518
973.593
973.673
973.762
973.859
973.964
974.079
974.203
974.338
974.485
974.643
974.813
974.996
975.191
975.399
975.621
975.854
976.101
976.359
976.628
976.909
977.2
977.5
977.809
978.125
978.448
978.776
979.109
979.444
979.781
980.119
980.456
980.792
981.125
981.453
981.777
982.095
982.406
982.709
983.003
983.288
983.563
983.827
984.081
984.322
984.551
984.768
984.972
985.163
985.342
985.507
985.659
985.797
985.922
986.034
986.132
986.218
986.29
986.35
986.396
986.429
986.449
986.455
986.447
986.426
986.39
986.34
986.274
986.193
986.096
985.982
985.85
985.701
985.535
985.35
985.146
984.924
984.683
984.424
984.146
983.852
983.541
983.213
982.871
982.515
982.147
981.768
981.381
980.986
980.587
980.185
979.783
979.382
978.985
978.595
978.213
977.841
977.483
977.138
976.811
976.501
976.212
975.942
975.695
975.47
975.268
975.089
974.934
974.802
974.692
974.604
974.536
974.488
974.457
974.443
974.442
974.454
974.475
974.503
974.536
974.572
974.608
974.64
974.668
974.689
974.7
974.698
974.683
974.652
974.602
974.532
974.442
974.328
974.187
974.021
973.833
973.605
973.335
973.058
972.75
972.324
971.884
971.542
970.962
970.064
969.635
969.283
967.502
965.999
966.253
965.618
964.132
1019.65
1017.48
1017.42
1017.33
1015.87
1015.47
1014.92
1014.08
1013.49
1013.21
1012.85
1012.41
1012.08
1011.83
1011.57
1011.3
1011.06
1010.83
1010.61
1010.39
1010.17
1009.96
1009.75
1009.53
1009.31
1009.09
1008.87
1008.64
1008.4
1008.16
1007.91
1007.65
1007.39
1007.11
1006.82
1006.52
1006.22
1005.89
1005.56
1005.21
1004.84
1004.47
1004.07
1003.66
1003.23
1002.79
1002.33
1001.85
1001.35
1000.84
1000.31
999.758
999.191
998.607
998.007
997.391
996.759
996.115
995.456
994.787
994.107
993.418
992.721
992.019
991.314
990.606
989.898
989.191
988.489
987.791
987.102
986.421
985.751
985.093
984.449
983.82
983.208
982.613
982.036
981.479
980.941
980.423
979.926
979.45
978.994
978.559
978.145
977.75
977.377
977.022
976.686
976.37
976.071
975.789
975.525
975.276
975.044
974.826
974.623
974.434
974.258
974.094
973.943
973.803
973.674
973.556
973.448
973.349
973.259
973.177
973.104
973.039
972.981
972.93
972.886
972.848
972.816
972.79
972.769
972.752
972.741
972.734
972.731
972.731
972.735
972.742
972.752
972.765
972.78
972.798
972.818
972.839
972.863
972.888
972.915
972.943
972.974
973.006
973.039
973.075
973.113
973.152
973.195
973.24
973.289
973.342
973.398
973.46
973.526
973.599
973.678
973.765
973.859
973.962
974.075
974.197
974.331
974.475
974.632
974.8
974.982
975.176
975.383
975.603
975.836
976.082
976.339
976.609
976.89
977.181
977.482
977.792
978.109
978.433
978.762
979.095
979.432
979.771
980.11
980.449
980.786
981.121
981.451
981.776
982.096
982.408
982.713
983.008
983.295
983.571
983.837
984.091
984.333
984.564
984.782
984.987
985.179
985.358
985.524
985.676
985.815
985.94
986.053
986.152
986.239
986.312
986.372
986.419
986.453
986.473
986.481
986.475
986.455
986.421
986.373
986.31
986.231
986.136
986.025
985.896
985.75
985.586
985.404
985.202
984.982
984.743
984.485
984.208
983.914
983.602
983.274
982.93
982.573
982.202
981.82
981.429
981.03
980.626
980.219
979.812
979.406
979.003
978.607
978.219
977.841
977.477
977.128
976.795
976.48
976.186
975.912
975.661
975.432
975.228
975.047
974.889
974.756
974.645
974.557
974.489
974.441
974.412
974.399
974.401
974.415
974.439
974.47
974.507
974.547
974.587
974.624
974.656
974.681
974.696
974.699
974.687
974.66
974.614
974.548
974.46
974.351
974.216
974.049
973.862
973.652
973.391
973.09
972.808
972.462
971.963
971.55
971.248
970.472
969.569
969.556
968.897
966.887
966.823
967.193
965.849
1017.55
1017.6
1017.2
1015.73
1015.88
1015.75
1014.59
1013.98
1013.84
1013.43
1012.87
1012.53
1012.3
1012
1011.68
1011.43
1011.21
1010.97
1010.73
1010.51
1010.29
1010.07
1009.85
1009.63
1009.41
1009.19
1008.96
1008.73
1008.49
1008.24
1007.99
1007.73
1007.46
1007.18
1006.89
1006.59
1006.28
1005.95
1005.61
1005.26
1004.89
1004.51
1004.11
1003.7
1003.27
1002.82
1002.36
1001.87
1001.37
1000.85
1000.31
999.756
999.183
998.592
997.984
997.361
996.722
996.069
995.403
994.725
994.037
993.339
992.635
991.925
991.211
990.496
989.781
989.068
988.36
987.657
986.963
986.278
985.605
984.944
984.299
983.669
983.056
982.462
981.887
981.331
980.796
980.282
979.789
979.316
978.865
978.435
978.025
977.636
977.267
976.918
976.588
976.276
975.982
975.706
975.446
975.202
974.974
974.76
974.561
974.375
974.202
974.041
973.892
973.755
973.628
973.512
973.406
973.308
973.22
973.14
973.068
973.005
972.948
972.899
972.856
972.819
972.789
972.763
972.744
972.729
972.719
972.714
972.712
972.714
972.72
972.729
972.74
972.755
972.772
972.791
972.812
972.835
972.86
972.887
972.915
972.944
972.975
973.008
973.042
973.078
973.116
973.155
973.198
973.242
973.291
973.342
973.398
973.458
973.523
973.594
973.672
973.757
973.85
973.952
974.062
974.184
974.316
974.459
974.614
974.781
974.962
975.155
975.362
975.582
975.815
976.061
976.319
976.589
976.871
977.163
977.465
977.776
978.095
978.421
978.752
979.087
979.426
979.766
980.108
980.449
980.788
981.124
981.456
981.784
982.105
982.419
982.726
983.023
983.311
983.589
983.856
984.112
984.356
984.587
984.806
985.012
985.206
985.385
985.552
985.705
985.845
985.971
986.084
986.184
986.271
986.345
986.406
986.454
986.488
986.51
986.519
986.515
986.497
986.465
986.419
986.358
986.282
986.19
986.081
985.956
985.812
985.651
985.47
985.271
985.052
984.815
984.557
984.281
983.986
983.673
983.343
982.997
982.635
982.261
981.874
981.478
981.074
980.664
980.25
979.836
979.423
979.013
978.61
978.215
977.831
977.46
977.104
976.766
976.446
976.146
975.868
975.613
975.381
975.173
974.99
974.831
974.697
974.586
974.498
974.431
974.386
974.359
974.349
974.354
974.372
974.4
974.437
974.478
974.524
974.569
974.612
974.65
974.68
974.701
974.71
974.704
974.681
974.641
974.581
974.498
974.391
974.264
974.11
973.919
973.709
973.486
973.2
972.862
972.575
972.238
971.682
971.234
971.026
970.297
969.33
969.259
969.037
967.99
967.514
967.984
1016.5
1016.92
1016.46
1015.83
1015.66
1014.94
1014.59
1014.36
1013.82
1013.31
1013.05
1012.78
1012.42
1012.09
1011.85
1011.61
1011.35
1011.1
1010.88
1010.65
1010.43
1010.2
1009.98
1009.76
1009.53
1009.31
1009.08
1008.84
1008.6
1008.35
1008.1
1007.83
1007.56
1007.28
1006.99
1006.68
1006.37
1006.04
1005.7
1005.34
1004.97
1004.58
1004.18
1003.76
1003.32
1002.87
1002.4
1001.91
1001.4
1000.87
1000.33
999.763
999.181
998.581
997.964
997.331
996.682
996.018
995.341
994.652
993.953
993.245
992.529
991.808
991.084
990.359
989.634
988.912
988.195
987.485
986.784
986.093
985.415
984.75
984.102
983.47
982.857
982.263
981.688
981.134
980.602
980.091
979.602
979.134
978.687
978.263
977.859
977.476
977.114
976.771
976.447
976.141
975.853
975.582
975.328
975.089
974.866
974.657
974.462
974.28
974.11
973.953
973.807
973.672
973.548
973.434
973.329
973.234
973.147
973.069
972.998
972.936
972.88
972.832
972.791
972.756
972.726
972.703
972.684
972.671
972.663
972.659
972.66
972.664
972.672
972.683
972.697
972.714
972.733
972.755
972.779
972.804
972.832
972.861
972.891
972.922
972.955
972.989
973.025
973.062
973.101
973.142
973.185
973.23
973.278
973.33
973.386
973.446
973.51
973.581
973.658
973.742
973.834
973.935
974.045
974.165
974.297
974.439
974.594
974.761
974.941
975.135
975.342
975.562
975.796
976.043
976.303
976.574
976.857
977.151
977.455
977.768
978.089
978.416
978.75
979.087
979.428
979.771
980.115
980.458
980.799
981.137
981.472
981.801
982.124
982.44
982.748
983.048
983.337
983.617
983.885
984.142
984.388
984.62
984.841
985.048
985.242
985.423
985.591
985.745
985.885
986.012
986.126
986.227
986.314
986.389
986.451
986.5
986.536
986.559
986.569
986.566
986.55
986.52
986.477
986.418
986.344
986.255
986.149
986.026
985.886
985.726
985.548
985.351
985.133
984.896
984.639
984.362
984.066
983.751
983.418
983.067
982.702
982.322
981.93
981.527
981.116
980.698
980.277
979.854
979.433
979.016
978.604
978.202
977.81
977.432
977.07
976.725
976.399
976.094
975.812
975.552
975.317
975.107
974.922
974.762
974.627
974.516
974.43
974.365
974.322
974.298
974.292
974.302
974.325
974.359
974.401
974.45
974.501
974.553
974.603
974.648
974.686
974.714
974.729
974.731
974.715
974.681
974.627
974.554
974.454
974.329
974.187
974.015
973.802
973.578
973.346
973.032
972.682
972.42
972.059
971.477
971.147
970.953
970.181
969.6
969.656
969.205
968.831
969.253
1016.24
1015.95
1015.74
1015.89
1015.27
1014.71
1014.63
1014.22
1013.73
1013.46
1013.2
1012.83
1012.51
1012.27
1012.02
1011.74
1011.49
1011.26
1011.03
1010.8
1010.58
1010.35
1010.13
1009.91
1009.68
1009.45
1009.22
1008.98
1008.74
1008.49
1008.23
1007.96
1007.69
1007.4
1007.11
1006.8
1006.48
1006.15
1005.8
1005.44
1005.07
1004.68
1004.27
1003.84
1003.4
1002.94
1002.46
1001.96
1001.45
1000.91
1000.35
999.78
999.188
998.576
997.948
997.301
996.639
995.963
995.272
994.57
993.856
993.134
992.405
991.67
990.933
990.194
989.457
988.724
987.996
987.276
986.566
985.867
985.182
984.513
983.86
983.225
982.61
982.015
981.442
980.889
980.36
979.852
979.367
978.904
978.464
978.045
977.648
977.272
976.917
976.581
976.264
975.965
975.684
975.42
975.172
974.939
974.721
974.517
974.327
974.15
973.984
973.83
973.688
973.556
973.434
973.322
973.219
973.125
973.039
972.962
972.893
972.831
972.777
972.729
972.688
972.654
972.626
972.603
972.586
972.575
972.568
972.566
972.569
972.576
972.586
972.6
972.617
972.637
972.66
972.685
972.712
972.741
972.772
972.805
972.838
972.873
972.909
972.946
972.985
973.025
973.066
973.109
973.155
973.202
973.252
973.305
973.362
973.423
973.488
973.56
973.637
973.722
973.814
973.915
974.026
974.147
974.278
974.422
974.577
974.745
974.926
975.121
975.329
975.551
975.786
976.034
976.296
976.569
976.854
977.15
977.456
977.771
978.095
978.424
978.76
979.1
979.443
979.787
980.133
980.478
980.821
981.161
981.497
981.828
982.153
982.471
982.781
983.081
983.372
983.653
983.923
984.182
984.428
984.662
984.884
985.092
985.287
985.469
985.638
985.793
985.934
986.062
986.177
986.279
986.367
986.443
986.505
986.555
986.593
986.617
986.629
986.628
986.613
986.585
986.544
986.488
986.416
986.329
986.226
986.106
985.968
985.81
985.634
985.438
985.222
984.985
984.728
984.45
984.151
983.833
983.496
983.141
982.77
982.384
981.985
981.574
981.155
980.729
980.3
979.868
979.438
979.012
978.592
978.181
977.781
977.395
977.026
976.674
976.343
976.032
975.745
975.482
975.244
975.031
974.844
974.683
974.548
974.439
974.353
974.291
974.251
974.232
974.23
974.245
974.274
974.315
974.364
974.42
974.479
974.54
974.598
974.651
974.697
974.733
974.757
974.767
974.76
974.735
974.688
974.622
974.535
974.419
974.278
974.124
973.939
973.705
973.474
973.247
972.917
972.553
972.33
971.998
971.425
971.138
971.028
970.5
970.056
970.12
970.177
970.109
1015.78
1015.59
1015.49
1015.31
1014.95
1014.82
1014.44
1014.01
1013.82
1013.55
1013.17
1012.88
1012.66
1012.4
1012.11
1011.88
1011.65
1011.42
1011.18
1010.96
1010.74
1010.51
1010.29
1010.07
1009.84
1009.61
1009.38
1009.14
1008.89
1008.64
1008.38
1008.11
1007.83
1007.55
1007.25
1006.94
1006.62
1006.28
1005.93
1005.57
1005.19
1004.79
1004.38
1003.95
1003.5
1003.03
1002.54
1002.03
1001.51
1000.96
1000.39
999.807
999.202
998.577
997.934
997.273
996.596
995.903
995.197
994.478
993.748
993.009
992.263
991.512
990.758
990.004
989.252
988.504
987.763
987.031
986.31
985.602
984.909
984.232
983.574
982.936
982.318
981.723
981.149
980.599
980.072
979.568
979.088
978.631
978.197
977.785
977.395
977.027
976.68
976.352
976.042
975.752
975.478
975.221
974.981
974.755
974.543
974.345
974.16
973.987
973.825
973.675
973.536
973.407
973.287
973.176
973.075
972.982
972.897
972.821
972.751
972.69
972.636
972.589
972.548
972.514
972.486
972.464
972.448
972.438
972.432
972.432
972.437
972.445
972.459
972.476
972.496
972.52
972.547
972.576
972.608
972.642
972.677
972.714
972.753
972.793
972.834
972.876
972.919
972.964
973.01
973.057
973.106
973.157
973.211
973.267
973.327
973.391
973.459
973.533
973.613
973.7
973.795
973.898
974.01
974.133
974.266
974.411
974.569
974.738
974.922
975.119
975.329
975.553
975.79
976.041
976.305
976.58
976.868
977.166
977.474
977.791
978.116
978.448
978.786
979.127
979.472
979.819
980.166
980.512
980.857
981.198
981.535
981.867
982.193
982.512
982.823
983.125
983.417
983.698
983.969
984.229
984.476
984.711
984.934
985.143
985.339
985.522
985.691
985.847
985.99
986.119
986.234
986.337
986.427
986.503
986.567
986.618
986.657
986.683
986.696
986.697
986.684
986.658
986.618
986.564
986.495
986.41
986.31
986.192
986.055
985.9
985.725
985.53
985.314
985.078
984.819
984.539
984.238
983.916
983.575
983.215
982.838
982.445
982.038
981.62
981.192
980.757
980.318
979.877
979.437
979.002
978.573
978.153
977.746
977.352
976.975
976.616
976.278
975.963
975.671
975.404
975.162
974.947
974.758
974.597
974.462
974.354
974.27
974.211
974.174
974.159
974.163
974.184
974.219
974.267
974.325
974.389
974.457
974.526
974.594
974.657
974.713
974.759
974.793
974.812
974.814
974.799
974.763
974.705
974.627
974.528
974.399
974.245
974.084
973.888
973.643
973.417
973.196
972.858
972.528
972.342
972.012
971.558
971.383
971.226
970.905
970.827
970.883
971.017
1015.26
1015.31
1015.23
1014.91
1014.81
1014.65
1014.25
1014.04
1013.81
1013.48
1013.22
1013
1012.74
1012.47
1012.24
1012.02
1011.78
1011.55
1011.33
1011.12
1010.9
1010.67
1010.46
1010.23
1010.01
1009.78
1009.54
1009.31
1009.06
1008.81
1008.55
1008.28
1008
1007.71
1007.41
1007.1
1006.77
1006.43
1006.08
1005.71
1005.33
1004.92
1004.5
1004.07
1003.61
1003.13
1002.63
1002.12
1001.58
1001.02
1000.44
999.843
999.223
998.583
997.924
997.246
996.551
995.841
995.115
994.377
993.628
992.869
992.103
991.333
990.561
989.788
989.019
988.255
987.498
986.752
986.018
985.298
984.595
983.911
983.247
982.604
981.983
981.386
980.813
980.265
979.741
979.242
978.767
978.316
977.889
977.486
977.104
976.744
976.406
976.087
975.786
975.505
975.24
974.991
974.758
974.539
974.334
974.142
973.963
973.795
973.638
973.491
973.355
973.228
973.11
973.001
972.901
972.808
972.724
972.647
972.578
972.515
972.461
972.412
972.371
972.336
972.308
972.286
972.27
972.26
972.255
972.256
972.262
972.273
972.289
972.309
972.333
972.361
972.392
972.426
972.463
972.503
972.544
972.588
972.633
972.679
972.727
972.776
972.826
972.877
972.93
972.983
973.039
973.096
973.155
973.218
973.283
973.352
973.426
973.504
973.589
973.68
973.779
973.885
974.002
974.128
974.265
974.414
974.574
974.748
974.934
975.134
975.347
975.574
975.814
976.068
976.334
976.612
976.902
977.203
977.513
977.832
978.159
978.492
978.831
979.174
979.52
979.867
980.215
980.562
980.907
981.249
981.587
981.919
982.245
982.565
982.876
983.177
983.469
983.751
984.023
984.282
984.53
984.766
984.988
985.198
985.395
985.578
985.749
985.905
986.049
986.179
986.296
986.4
986.49
986.568
986.633
986.686
986.726
986.753
986.768
986.77
986.758
986.734
986.696
986.644
986.577
986.495
986.395
986.279
986.145
985.991
985.818
985.623
985.407
985.17
984.911
984.629
984.325
983.999
983.653
983.288
982.904
982.504
982.089
981.662
981.225
980.781
980.332
979.882
979.432
978.987
978.549
978.121
977.705
977.303
976.918
976.553
976.209
975.888
975.591
975.319
975.075
974.857
974.667
974.505
974.37
974.263
974.181
974.125
974.092
974.081
974.091
974.119
974.161
974.217
974.283
974.357
974.435
974.514
974.592
974.666
974.732
974.789
974.834
974.864
974.878
974.873
974.85
974.804
974.735
974.647
974.539
974.398
974.236
974.074
973.875
973.623
973.412
973.209
972.881
972.587
972.442
972.175
971.829
971.713
971.672
971.531
971.521
971.793
1014.97
1014.98
1014.9
1014.77
1014.65
1014.37
1014.2
1014.03
1013.72
1013.48
1013.29
1013.04
1012.78
1012.57
1012.36
1012.13
1011.9
1011.69
1011.48
1011.26
1011.05
1010.84
1010.62
1010.4
1010.18
1009.95
1009.72
1009.48
1009.24
1008.99
1008.73
1008.46
1008.18
1007.89
1007.58
1007.27
1006.94
1006.6
1006.24
1005.87
1005.48
1005.07
1004.65
1004.2
1003.74
1003.25
1002.74
1002.22
1001.67
1001.09
1000.5
999.887
999.251
998.594
997.917
997.221
996.506
995.775
995.028
994.268
993.497
992.716
991.928
991.136
990.341
989.548
988.759
987.976
987.201
986.439
985.69
984.958
984.244
983.55
982.879
982.231
981.607
981.008
980.436
979.889
979.369
978.875
978.406
977.963
977.544
977.15
976.777
976.427
976.099
975.789
975.5
975.227
974.972
974.732
974.508
974.297
974.099
973.914
973.74
973.577
973.425
973.282
973.149
973.024
972.908
972.8
972.7
972.608
972.523
972.445
972.374
972.311
972.254
972.204
972.161
972.124
972.094
972.071
972.054
972.043
972.039
972.04
972.047
972.059
972.077
972.1
972.127
972.159
972.194
972.234
972.277
972.323
972.371
972.422
972.475
972.53
972.586
972.644
972.703
972.763
972.825
972.887
972.952
973.018
973.086
973.156
973.23
973.307
973.388
973.474
973.566
973.664
973.769
973.883
974.005
974.137
974.279
974.433
974.599
974.777
974.968
975.172
975.389
975.62
975.864
976.12
976.39
976.671
976.963
977.265
977.577
977.898
978.226
978.56
978.9
979.243
979.589
979.937
980.284
980.631
980.976
981.317
981.654
981.986
982.311
982.629
982.939
983.24
983.531
983.812
984.082
984.341
984.589
984.824
985.047
985.256
985.453
985.637
985.807
985.964
986.108
986.239
986.357
986.462
986.554
986.633
986.699
986.753
986.794
986.823
986.839
986.843
986.833
986.811
986.774
986.724
986.658
986.577
986.48
986.365
986.232
986.08
985.907
985.713
985.498
985.26
984.999
984.715
984.408
984.079
983.728
983.357
982.966
982.559
982.136
981.7
981.254
980.801
980.342
979.882
979.423
978.969
978.522
978.085
977.66
977.25
976.858
976.486
976.135
975.808
975.507
975.231
974.983
974.763
974.571
974.408
974.273
974.167
974.087
974.034
974.005
974
974.015
974.049
974.1
974.165
974.24
974.323
974.411
974.502
974.591
974.676
974.755
974.824
974.88
974.923
974.95
974.957
974.944
974.914
974.86
974.781
974.686
974.573
974.423
974.259
974.102
973.902
973.66
973.472
973.281
972.992
972.764
972.63
972.422
972.231
972.172
972.149
972.191
972.383
1014.76
1014.71
1014.65
1014.62
1014.45
1014.26
1014.14
1013.91
1013.7
1013.52
1013.3
1013.06
1012.87
1012.66
1012.44
1012.23
1012.03
1011.82
1011.61
1011.41
1011.2
1010.99
1010.78
1010.57
1010.35
1010.12
1009.9
1009.66
1009.42
1009.17
1008.91
1008.64
1008.36
1008.07
1007.77
1007.45
1007.12
1006.78
1006.42
1006.04
1005.65
1005.23
1004.8
1004.35
1003.88
1003.38
1002.86
1002.32
1001.76
1001.18
1000.57
999.939
999.285
998.61
997.913
997.196
996.459
995.705
994.935
994.151
993.355
992.549
991.736
990.919
990.101
989.284
988.471
987.667
986.872
986.091
985.326
984.579
983.853
983.15
982.47
981.817
981.189
980.589
980.017
979.473
978.957
978.469
978.008
977.573
977.164
976.779
976.417
976.078
975.761
975.463
975.184
974.923
974.678
974.448
974.233
974.031
973.841
973.663
973.496
973.339
973.191
973.052
972.922
972.799
972.685
972.578
972.477
972.384
972.298
972.219
972.146
972.08
972.021
971.968
971.922
971.882
971.85
971.823
971.805
971.792
971.786
971.787
971.793
971.806
971.825
971.85
971.88
971.915
971.956
972.001
972.05
972.103
972.159
972.219
972.281
972.345
972.412
972.48
972.55
972.622
972.695
972.769
972.845
972.923
973.002
973.084
973.169
973.257
973.349
973.445
973.547
973.655
973.769
973.891
974.022
974.162
974.312
974.473
974.646
974.83
975.027
975.237
975.459
975.695
975.942
976.202
976.475
976.758
977.053
977.357
977.671
977.992
978.321
978.655
978.995
979.337
979.682
980.029
980.375
980.72
981.063
981.402
981.737
982.066
982.389
982.705
983.013
983.311
983.6
983.879
984.148
984.405
984.651
984.885
985.106
985.315
985.511
985.694
985.864
986.021
986.165
986.296
986.415
986.52
986.613
986.693
986.761
986.816
986.858
986.889
986.906
986.911
986.904
986.883
986.848
986.799
986.735
986.655
986.559
986.446
986.314
986.163
985.99
985.797
985.581
985.342
985.08
984.794
984.484
984.151
983.796
983.419
983.023
982.608
982.178
981.734
981.279
980.817
980.349
979.88
979.412
978.948
978.492
978.046
977.613
977.195
976.796
976.417
976.06
975.727
975.42
975.141
974.889
974.666
974.472
974.308
974.173
974.067
973.99
973.94
973.915
973.914
973.936
973.978
974.036
974.11
974.195
974.288
974.388
974.49
974.591
974.689
974.78
974.862
974.933
974.988
975.028
975.05
975.05
975.031
974.995
974.933
974.847
974.749
974.633
974.48
974.319
974.173
973.98
973.756
973.593
973.424
973.184
973.008
972.911
972.774
972.663
972.669
972.731
972.868
1014.53
1014.53
1014.49
1014.41
1014.29
1014.2
1014.03
1013.84
1013.7
1013.51
1013.3
1013.12
1012.93
1012.72
1012.53
1012.34
1012.14
1011.94
1011.74
1011.55
1011.35
1011.14
1010.94
1010.73
1010.52
1010.3
1010.07
1009.84
1009.6
1009.35
1009.1
1008.83
1008.55
1008.26
1007.96
1007.64
1007.31
1006.97
1006.6
1006.22
1005.82
1005.41
1004.97
1004.51
1004.03
1003.52
1003
1002.44
1001.87
1001.27
1000.65
999.998
999.326
998.63
997.912
997.172
996.412
995.633
994.837
994.026
993.202
992.369
991.528
990.683
989.837
988.994
988.156
987.327
986.511
985.709
984.926
984.163
983.423
982.708
982.021
981.36
980.73
980.129
979.558
979.018
978.507
978.026
977.573
977.148
976.749
976.375
976.026
975.7
975.395
975.109
974.843
974.594
974.36
974.142
973.937
973.745
973.564
973.393
973.233
973.082
972.939
972.804
972.677
972.556
972.443
972.336
972.236
972.142
972.054
971.972
971.896
971.827
971.764
971.707
971.657
971.613
971.577
971.547
971.525
971.509
971.501
971.5
971.505
971.518
971.537
971.563
971.595
971.634
971.678
971.728
971.783
971.844
971.908
971.977
972.049
972.125
972.203
972.284
972.367
972.452
972.539
972.627
972.718
972.81
972.905
973.001
973.1
973.202
973.308
973.418
973.533
973.653
973.78
973.913
974.055
974.206
974.366
974.537
974.718
974.91
975.115
975.331
975.56
975.8
976.053
976.317
976.593
976.879
977.176
977.481
977.796
978.117
978.446
978.779
979.117
979.458
979.801
980.145