# vtk DataFile Version 2.0
LBE mesh
ASCII
DATASET STRUCTURED_POINTS
DIMENSIONS 300 100 1
ASPECT_RATIO 1 1 1
ORIGIN 0 0 0
POINT_DATA 30000
SCALARS rho double 1
LOOKUP_TABLE default
1047.4
1015.78
1015.09
1021.56
1019.73
1015.84
1015.66
1016.18
1015.42
1014.63
1014.47
1014.32
1013.95
1013.66
1013.47
1013.26
1013.02
1012.81
1012.62
1012.42
1012.21
1012.01
1011.81
1011.6
1011.39
1011.18
1010.95
1010.73
1010.49
1010.25
1010
1009.74
1009.47
1009.2
1008.91
1008.6
1008.29
1007.96
1007.62
1007.27
1006.9
1006.52
1006.12
1005.7
1005.27
1004.83
1004.36
1003.88
1003.38
1002.86
1002.32
1001.77
1001.2
1000.61
1000
999.381
998.742
998.089
997.421
996.74
996.047
995.344
994.631
993.91
993.184
992.453
991.72
990.985
990.252
989.521
988.796
988.077
987.367
986.666
985.977
985.301
984.64
983.995
983.367
982.756
982.165
981.593
981.041
980.51
980
979.511
979.043
978.596
978.17
977.765
977.381
977.017
976.672
976.347
976.04
975.752
975.481
975.227
974.989
974.767
974.561
974.368
974.19
974.024
973.871
973.73
973.6
973.482
973.374
973.275
973.186
973.105
973.033
972.969
972.912
972.862
972.818
972.781
972.749
972.722
972.701
972.683
972.67
972.661
972.656
972.653
972.653
972.656
972.661
972.668
972.676
972.686
972.697
972.709
972.722
972.734
972.747
972.76
972.773
972.785
972.797
972.808
972.817
972.827
972.835
972.843
972.849
972.855
972.861
972.866
972.87
972.875
972.881
972.888
972.896
972.907
972.921
972.939
972.962
972.991
973.027
973.071
973.125
973.189
973.265
973.353
973.455
973.572
973.704
973.853
974.018
974.201
974.402
974.62
974.857
975.111
975.382
975.67
975.974
976.292
976.625
976.971
977.328
977.695
978.071
978.455
978.845
979.239
979.636
980.035
980.434
980.832
981.228
981.621
982.008
982.391
982.766
983.134
983.494
983.845
984.187
984.519
984.84
985.151
985.451
985.739
986.017
986.282
986.537
986.78
987.011
987.231
987.44
987.638
987.824
987.999
988.164
988.317
988.459
988.591
988.712
988.822
988.92
989.007
989.082
989.145
989.196
989.233
989.258
989.268
989.264
989.246
989.211
989.161
989.095
989.011
988.911
988.794
988.66
988.509
988.34
988.156
987.954
987.737
987.505
987.26
987
986.729
986.448
986.156
985.858
985.554
985.244
984.933
984.62
984.309
984
983.696
983.397
983.107
982.827
982.557
982.299
982.055
981.826
981.612
981.414
981.232
981.066
980.916
980.783
980.663
980.558
980.466
980.383
980.31
980.243
980.179
980.115
980.049
979.977
979.892
979.79
979.678
979.537
979.347
979.143
978.926
978.587
978.154
977.855
977.419
976.393
975.678
975.796
973.83
970.03
972.1
972.961
949.571
1030.33
1026.8
1022.74
1017.56
1017.75
1017.92
1016.76
1015.61
1015.38
1015.14
1014.67
1014.28
1014.06
1013.81
1013.54
1013.3
1013.09
1012.88
1012.66
1012.45
1012.25
1012.04
1011.83
1011.62
1011.4
1011.18
1010.96
1010.73
1010.49
1010.25
1010
1009.73
1009.46
1009.18
1008.89
1008.58
1008.27
1007.94
1007.6
1007.24
1006.87
1006.48
1006.08
1005.67
1005.23
1004.78
1004.32
1003.83
1003.33
1002.81
1002.28
1001.72
1001.15
1000.56
999.954
999.331
998.693
998.04
997.373
996.693
996.001
995.299
994.589
993.87
993.146
992.417
991.686
990.954
990.224
989.496
988.774
988.058
987.351
986.654
985.968
985.296
984.638
983.996
983.371
982.764
982.175
981.606
981.057
980.529
980.021
979.534
979.069
978.624
978.2
977.797
977.414
977.051
976.708
976.384
976.079
975.791
975.521
975.268
975.031
974.81
974.603
974.411
974.233
974.068
973.915
973.774
973.645
973.527
973.419
973.321
973.232
973.151
973.08
973.015
972.958
972.909
972.865
972.828
972.796
972.77
972.748
972.731
972.719
972.709
972.704
972.701
972.701
972.704
972.709
972.716
972.724
972.734
972.745
972.756
972.768
972.781
972.793
972.805
972.818
972.829
972.84
972.85
972.86
972.869
972.877
972.884
972.89
972.895
972.9
972.905
972.909
972.914
972.919
972.925
972.933
972.944
972.957
972.975
972.998
973.026
973.062
973.105
973.158
973.221
973.295
973.382
973.483
973.598
973.729
973.875
974.039
974.22
974.418
974.634
974.868
975.119
975.388
975.673
975.974
976.291
976.621
976.964
977.319
977.684
978.058
978.44
978.828
979.22
979.616
980.013
980.411
980.808
981.203
981.595
981.982
982.363
982.739
983.106
983.466
983.817
984.159
984.491
984.812
985.123
985.424
985.713
985.99
986.256
986.511
986.755
986.987
987.207
987.416
987.614
987.801
987.977
988.142
988.295
988.438
988.57
988.692
988.802
988.901
988.988
989.064
989.128
989.179
989.217
989.243
989.254
989.251
989.234
989.201
989.153
989.088
989.007
988.909
988.794
988.662
988.512
988.346
988.163
987.964
987.749
987.519
987.275
987.018
986.748
986.468
986.178
985.881
985.577
985.268
984.956
984.643
984.332
984.022
983.717
983.417
983.126
982.844
982.572
982.312
982.065
981.833
981.616
981.414
981.229
981.059
980.906
980.768
980.645
980.535
980.438
980.351
980.273
980.201
980.132
980.064
979.992
979.913
979.826
979.722
979.594
979.448
979.274
979.047
978.775
978.496
978.126
977.594
977.09
976.638
975.64
974.343
973.846
972.716
968.599
964.891
963.052
1022.24
1027.06
1022.41
1018.12
1018.38
1018.11
1016.74
1015.81
1015.62
1015.28
1014.77
1014.4
1014.16
1013.9
1013.62
1013.37
1013.15
1012.93
1012.71
1012.49
1012.28
1012.07
1011.86
1011.64
1011.43
1011.2
1010.98
1010.74
1010.5
1010.26
1010
1009.74
1009.46
1009.18
1008.88
1008.58
1008.26
1007.93
1007.58
1007.23
1006.85
1006.47
1006.06
1005.64
1005.21
1004.76
1004.29
1003.8
1003.3
1002.78
1002.24
1001.69
1001.11
1000.52
999.915
999.292
998.653
997.999
997.331
996.65
995.958
995.256
994.545
993.826
993.102
992.374
991.643
990.912
990.183
989.457
988.735
988.021
987.316
986.621
985.937
985.267
984.611
983.972
983.349
982.745
982.159
981.593
981.046
980.521
980.016
979.532
979.069
978.626
978.205
977.804
977.423
977.063
976.722
976.399
976.096
975.81
975.541
975.29
975.054
974.834
974.629
974.438
974.261
974.097
973.945
973.806
973.677
973.56
973.452
973.355
973.266
973.187
973.116
973.052
972.996
972.947
972.904
972.867
972.836
972.81
972.789
972.772
972.76
972.752
972.747
972.745
972.745
972.748
972.753
972.76
972.769
972.779
972.789
972.801
972.813
972.825
972.837
972.849
972.861
972.873
972.883
972.893
972.903
972.911
972.918
972.925
972.93
972.935
972.939
972.943
972.947
972.951
972.955
972.96
972.968
972.977
972.99
973.006
973.027
973.054
973.088
973.13
973.181
973.242
973.314
973.398
973.496
973.609
973.737
973.882
974.043
974.221
974.417
974.631
974.862
975.112
975.378
975.662
975.961
976.276
976.605
976.946
977.3
977.664
978.037
978.418
978.806
979.198
979.593
979.991
980.388
980.786
981.18
981.572
981.96
982.341
982.717
983.085
983.445
983.797
984.139
984.471
984.794
985.105
985.406
985.695
985.973
986.24
986.495
986.739
986.971
987.192
987.402
987.6
987.787
987.963
988.129
988.283
988.426
988.558
988.68
988.791
988.89
988.978
989.055
989.12
989.172
989.212
989.239
989.252
989.25
989.235
989.204
989.158
989.095
989.016
988.92
988.807
988.677
988.529
988.365
988.184
987.987
987.773
987.544
987.3
987.044
986.774
986.494
986.204
985.906
985.601
985.292
984.978
984.664
984.35
984.038
983.73
983.428
983.133
982.848
982.572
982.309
982.059
981.823
981.602
981.397
981.208
981.035
980.878
980.737
980.61
980.498
980.397
980.308
980.227
980.152
980.081
980.011
979.938
979.857
979.768
979.666
979.536
979.38
979.215
979.002
978.7
978.403
978.119
977.576
976.883
976.604
976.003
974.084
973.278
974.194
969.984
964.551
968.835
1021.96
1020.71
1020.19
1021.39
1018.9
1016.81
1016.79
1016.72
1015.82
1015.13
1014.91
1014.66
1014.27
1013.95
1013.72
1013.48
1013.23
1012.99
1012.78
1012.56
1012.34
1012.12
1011.91
1011.69
1011.46
1011.24
1011.01
1010.77
1010.53
1010.28
1010.02
1009.76
1009.48
1009.19
1008.9
1008.59
1008.27
1007.94
1007.59
1007.23
1006.85
1006.47
1006.06
1005.64
1005.2
1004.75
1004.28
1003.79
1003.29
1002.76
1002.22
1001.66
1001.09
1000.49
999.884
999.258
998.616
997.96
997.289
996.606
995.911
995.207
994.493
993.772
993.046
992.316
991.584
990.851
990.12
989.393
988.672
987.957
987.251
986.557
985.874
985.205
984.551
983.913
983.293
982.691
982.107
981.544
981
980.478
979.976
979.495
979.035
978.597
978.179
977.781
977.404
977.046
976.708
976.388
976.087
975.804
975.539
975.289
975.056
974.838
974.634
974.446
974.27
974.108
973.958
973.82
973.693
973.576
973.47
973.374
973.286
973.208
973.138
973.075
973.021
972.972
972.93
972.894
972.864
972.839
972.819
972.803
972.792
972.784
972.779
972.778
972.779
972.783
972.789
972.796
972.805
972.816
972.827
972.839
972.852
972.864
972.876
972.889
972.901
972.912
972.923
972.932
972.941
972.949
972.956
972.963
972.968
972.972
972.975
972.978
972.981
972.983
972.987
972.991
972.996
973.004
973.015
973.029
973.048
973.073
973.104
973.143
973.191
973.249
973.319
973.4
973.496
973.605
973.731
973.872
974.03
974.206
974.4
974.611
974.841
975.089
975.354
975.636
975.935
976.249
976.578
976.919
977.273
977.637
978.011
978.392
978.78
979.173
979.569
979.968
980.367
980.765
981.161
981.553
981.942
982.324
982.701
983.07
983.431
983.784
984.127
984.46
984.783
985.095
985.396
985.686
985.965
986.232
986.488
986.732
986.965
987.186
987.396
987.594
987.782
987.958
988.123
988.278
988.421
988.554
988.676
988.788
988.888
988.977
989.055
989.121
989.175
989.216
989.244
989.259
989.26
989.247
989.218
989.174
989.114
989.037
988.943
988.832
988.704
988.559
988.396
988.216
988.019
987.806
987.577
987.333
987.076
986.806
986.525
986.233
985.933
985.625
985.313
984.997
984.679
984.361
984.046
983.734
983.427
983.129
982.839
982.56
982.292
982.038
981.798
981.573
981.364
981.171
980.995
980.835
980.691
980.562
980.448
980.346
980.255
980.174
980.099
980.028
979.958
979.887
979.809
979.718
979.615
979.5
979.349
979.159
978.964
978.731
978.373
977.991
977.696
977.144
976.251
975.821
975.449
973.592
972.022
972.23
971.519
969.971
1021.95
1019.79
1019.73
1019.64
1018.18
1017.78
1017.23
1016.39
1015.8
1015.52
1015.15
1014.71
1014.37
1014.12
1013.85
1013.57
1013.33
1013.1
1012.87
1012.64
1012.42
1012.2
1011.98
1011.75
1011.53
1011.3
1011.06
1010.83
1010.58
1010.33
1010.07
1009.8
1009.52
1009.23
1008.93
1008.62
1008.3
1007.96
1007.62
1007.25
1006.88
1006.49
1006.08
1005.66
1005.22
1004.76
1004.28
1003.79
1003.29
1002.76
1002.21
1001.65
1001.07
1000.47
999.858
999.228
998.581
997.92
997.244
996.555
995.856
995.146
994.427
993.701
992.97
992.236
991.5
990.763
990.029
989.299
988.575
987.858
987.151
986.455
985.772
985.103
984.45
983.813
983.194
982.594
982.014
981.453
980.913
980.394
979.896
979.419
978.964
978.529
978.115
977.722
977.349
976.996
976.662
976.346
976.049
975.77
975.508
975.262
975.031
974.817
974.616
974.43
974.257
974.097
973.949
973.813
973.688
973.573
973.469
973.374
973.288
973.211
973.142
973.08
973.026
972.979
972.938
972.904
972.874
972.85
972.831
972.817
972.806
972.8
972.796
972.796
972.798
972.803
972.81
972.819
972.829
972.84
972.853
972.866
972.879
972.892
972.905
972.918
972.931
972.943
972.954
972.964
972.973
972.981
972.988
972.993
972.998
973.002
973.004
973.006
973.008
973.009
973.011
973.014
973.017
973.023
973.031
973.043
973.059
973.081
973.109
973.145
973.19
973.244
973.31
973.389
973.481
973.587
973.709
973.848
974.004
974.177
974.369
974.579
974.808
975.054
975.319
975.601
975.9
976.214
976.543
976.885
977.24
977.606
977.981
978.364
978.754
979.148
979.546
979.946
980.346
980.746
981.144
981.538
981.928
982.312
982.69
983.06
983.423
983.776
984.12
984.455
984.779
985.092
985.393
985.684
985.963
986.231
986.487
986.732
986.965
987.186
987.396
987.595
987.783
987.959
988.125
988.28
988.424
988.557
988.68
988.792
988.893
988.983
989.063
989.13
989.185
989.228
989.259
989.276
989.279
989.268
989.242
989.2
989.142
989.068
988.977
988.868
988.741
988.597
988.435
988.256
988.06
987.846
987.617
987.373
987.114
986.842
986.558
986.263
985.959
985.648
985.332
985.011
984.689
984.366
984.046
983.729
983.418
983.114
982.819
982.535
982.262
982.004
981.759
981.53
981.317
981.121
980.942
980.78
980.634
980.503
980.388
980.286
980.196
980.115
980.042
979.974
979.906
979.837
979.765
979.681
979.579
979.466
979.337
979.157
978.938
978.735
978.459
978.017
977.651
977.384
976.611
975.687
975.665
974.956
972.837
972.711
973.031
971.613
1019.86
1019.9
1019.5
1018.04
1018.19
1018.05
1016.9
1016.28
1016.13
1015.73
1015.16
1014.82
1014.58
1014.28
1013.96
1013.7
1013.46
1013.22
1012.98
1012.75
1012.52
1012.3
1012.07
1011.84
1011.62
1011.38
1011.15
1010.91
1010.66
1010.4
1010.14
1009.87
1009.59
1009.3
1008.99
1008.68
1008.36
1008.02
1007.67
1007.3
1006.92
1006.53
1006.12
1005.69
1005.25
1004.79
1004.31
1003.81
1003.3
1002.77
1002.22
1001.65
1001.06
1000.46
999.837
999.199
998.545
997.876
997.192
996.496
995.789
995.071
994.344
993.611
992.872
992.131
991.388
990.645
989.905
989.17
988.441
987.72
987.01
986.312
985.627
984.957
984.304
983.668
983.05
982.452
981.874
981.316
980.78
980.265
979.772
979.3
978.85
978.42
978.012
977.624
977.257
976.909
976.58
976.271
975.979
975.704
975.446
975.205
974.979
974.768
974.571
974.388
974.218
974.061
973.916
973.782
973.659
973.547
973.444
973.351
973.266
973.191
973.123
973.063
973.01
972.964
972.924
972.89
972.862
972.839
972.821
972.808
972.799
972.793
972.791
972.792
972.796
972.802
972.81
972.821
972.832
972.845
972.859
972.873
972.888
972.903
972.918
972.932
972.945
972.958
972.971
972.981
972.991
973
973.007
973.012
973.017
973.02
973.022
973.024
973.024
973.024
973.025
973.025
973.027
973.03
973.036
973.045
973.058
973.077
973.102
973.134
973.176
973.227
973.29
973.364
973.453
973.557
973.676
973.812
973.966
974.138
974.328
974.537
974.765
975.012
975.277
975.559
975.859
976.174
976.504
976.849
977.205
977.573
977.95
978.336
978.727
979.124
979.524
979.926
980.329
980.731
981.131
981.527
981.919
982.304
982.684
983.056
983.419
983.774
984.12
984.455
984.78
985.094
985.396
985.688
985.968
986.236
986.492
986.737
986.971
987.192
987.403
987.602
987.79
987.966
988.132
988.287
988.432
988.566
988.69
988.803
988.905
988.996
989.077
989.146
989.203
989.248
989.281
989.3
989.306
989.297
989.274
989.235
989.179
989.108
989.018
988.911
988.786
988.643
988.482
988.304
988.107
987.893
987.662
987.416
987.155
986.88
986.592
986.293
985.985
985.669
985.347
985.021
984.693
984.365
984.038
983.716
983.398
983.089
982.788
982.499
982.221
981.957
981.709
981.476
981.259
981.06
980.878
980.714
980.566
980.435
980.32
980.218
980.13
980.051
979.981
979.916
979.855
979.79
979.721
979.648
979.561
979.446
979.318
979.181
978.979
978.72
978.507
978.23
977.715
977.296
977.103
976.352
975.34
975.229
974.938
973.791
973.223
973.632
1018.81
1019.21
1018.75
1018.12
1017.95
1017.23
1016.88
1016.65
1016.1
1015.59
1015.32
1015.06
1014.69
1014.36
1014.11
1013.86
1013.6
1013.34
1013.11
1012.88
1012.65
1012.42
1012.19
1011.96
1011.73
1011.5
1011.26
1011.01
1010.76
1010.5
1010.24
1009.96
1009.68
1009.39
1009.08
1008.77
1008.44
1008.1
1007.74
1007.38
1006.99
1006.59
1006.18
1005.75
1005.3
1004.84
1004.35
1003.85
1003.33
1002.79
1002.23
1001.66
1001.06
1000.45
999.819
999.171
998.508
997.828
997.135
996.428
995.71
994.981
994.244
993.5
992.752
992
991.247
990.496
989.748
989.005
988.269
987.543
986.828
986.126
985.438
984.766
984.112
983.475
982.859
982.263
981.687
981.133
980.601
980.091
979.603
979.137
978.692
978.269
977.868
977.487
977.126
976.785
976.463
976.16
975.874
975.605
975.353
975.117
974.896
974.69
974.498
974.319
974.153
973.999
973.857
973.726
973.605
973.495
973.394
973.303
973.22
973.146
973.079
973.02
972.968
972.922
972.883
972.85
972.823
972.801
972.784
972.771
972.763
972.758
972.758
972.76
972.765
972.773
972.783
972.795
972.808
972.823
972.839
972.856
972.872
972.889
972.906
972.923
972.938
972.953
972.967
972.98
972.991
973
973.008
973.015
973.02
973.024
973.026
973.027
973.027
973.026
973.025
973.025
973.024
973.026
973.029
973.036
973.046
973.062
973.084
973.113
973.151
973.2
973.259
973.331
973.418
973.518
973.636
973.77
973.922
974.093
974.283
974.492
974.72
974.967
975.233
975.517
975.818
976.135
976.468
976.814
977.173
977.543
977.923
978.311
978.705
979.104
979.507
979.912
980.317
980.721
981.122
981.52
981.914
982.302
982.683
983.056
983.421
983.777
984.123
984.46
984.785
985.1
985.403
985.695
985.976
986.245
986.502
986.747
986.981
987.203
987.413
987.613
987.801
987.978
988.145
988.3
988.445
988.58
988.705
988.819
988.922
989.015
989.096
989.168
989.227
989.274
989.309
989.331
989.339
989.333
989.312
989.276
989.223
989.153
989.066
988.961
988.838
988.696
988.535
988.356
988.159
987.944
987.711
987.462
987.197
986.918
986.626
986.322
986.009
985.687
985.359
985.027
984.692
984.357
984.024
983.695
983.371
983.055
982.749
982.453
982.17
981.902
981.648
981.411
981.191
980.989
980.805
980.638
980.49
980.359
980.244
980.144
980.058
979.983
979.917
979.856
979.801
979.746
979.684
979.615
979.542
979.449
979.321
979.186
979.041
978.808
978.531
978.332
978.015
977.454
977.133
976.929
976.105
975.458
975.445
974.897
974.416
974.743
1018.53
1018.24
1018.03
1018.17
1017.55
1016.99
1016.91
1016.49
1016
1015.73
1015.46
1015.09
1014.76
1014.52
1014.26
1013.98
1013.73
1013.49
1013.26
1013.02
1012.79
1012.56
1012.33
1012.1
1011.86
1011.63
1011.39
1011.14
1010.89
1010.63
1010.36
1010.08
1009.8
1009.5
1009.2
1008.88
1008.55
1008.2
1007.85
1007.47
1007.09
1006.68
1006.26
1005.83
1005.37
1004.9
1004.41
1003.9
1003.37
1002.83
1002.26
1001.68
1001.07
1000.45
999.805
999.146
998.469
997.777
997.071
996.351
995.619
994.877
994.126
993.369
992.608
991.843
991.079
990.316
989.557
988.805
988.06
987.326
986.604
985.897
985.205
984.531
983.874
983.238
982.622
982.028
981.455
980.905
980.377
979.872
979.39
978.931
978.494
978.078
977.684
977.311
976.958
976.625
976.311
976.015
975.736
975.475
975.229
975
974.785
974.584
974.397
974.223
974.061
973.911
973.772
973.644
973.526
973.418
973.319
973.229
973.148
973.074
973.008
972.95
972.898
972.853
972.814
972.781
972.754
972.732
972.715
972.703
972.695
972.692
972.692
972.695
972.701
972.711
972.723
972.736
972.752
972.769
972.787
972.806
972.826
972.845
972.865
972.884
972.903
972.921
972.937
972.952
972.966
972.978
972.988
972.996
973.003
973.008
973.011
973.013
973.013
973.012
973.011
973.009
973.008
973.008
973.01
973.015
973.023
973.037
973.057
973.084
973.12
973.166
973.223
973.293
973.378
973.477
973.593
973.727
973.878
974.049
974.239
974.448
974.677
974.926
975.193
975.479
975.782
976.101
976.437
976.785
977.147
977.52
977.903
978.293
978.69
979.092
979.497
979.904
980.311
980.717
981.12
981.52
981.915
982.304
982.686
983.061
983.427
983.784
984.131
984.468
984.794
985.109
985.413
985.706
985.986
986.256
986.513
986.759
986.993
987.216
987.427
987.626
987.815
987.993
988.16
988.317
988.463
988.598
988.723
988.838
988.943
989.037
989.121
989.193
989.255
989.304
989.341
989.365
989.376
989.373
989.355
989.321
989.271
989.203
989.118
989.015
988.893
988.751
988.591
988.411
988.213
987.996
987.761
987.509
987.24
986.957
986.659
986.35
986.031
985.702
985.367
985.028
984.687
984.345
984.005
983.668
983.338
983.015
982.702
982.4
982.112
981.838
981.58
981.338
981.115
980.91
980.723
980.556
980.406
980.276
980.162
980.064
979.981
979.909
979.849
979.796
979.746
979.698
979.651
979.592
979.521
979.449
979.352
979.209
979.068
978.925
978.668
978.366
978.19
977.882
977.306
977.003
976.853
976.251
975.714
975.679
975.624
975.418
1018.06
1017.88
1017.77
1017.59
1017.22
1017.09
1016.7
1016.27
1016.08
1015.8
1015.42
1015.13
1014.91
1014.63
1014.35
1014.1
1013.88
1013.63
1013.39
1013.16
1012.94
1012.71
1012.48
1012.25
1012.01
1011.77
1011.53
1011.28
1011.03
1010.77
1010.5
1010.22
1009.94
1009.64
1009.33
1009.01
1008.68
1008.33
1007.97
1007.59
1007.2
1006.79
1006.37
1005.93
1005.47
1004.99
1004.49
1003.97
1003.43
1002.88
1002.3
1001.7
1001.09
1000.45
999.796
999.122
998.431
997.724
997.001
996.265
995.518
994.759
993.992
993.219
992.442
991.662
990.883
990.106
989.335
988.57
987.815
987.072
986.342
985.628
984.931
984.253
983.594
982.957
982.342
981.749
981.18
980.633
980.111
979.612
979.137
978.685
978.256
977.849
977.464
977.099
976.755
976.431
976.126
975.838
975.568
975.315
975.077
974.855
974.646
974.452
974.27
974.101
973.944
973.798
973.663
973.538
973.423
973.317
973.22
973.131
973.05
972.977
972.912
972.853
972.801
972.756
972.716
972.683
972.655
972.633
972.615
972.602
972.594
972.591
972.591
972.595
972.602
972.612
972.625
972.64
972.658
972.677
972.698
972.72
972.742
972.765
972.788
972.811
972.833
972.855
972.875
972.894
972.912
972.927
972.94
972.952
972.961
972.969
972.974
972.978
972.98
972.98
972.979
972.979
972.978
972.978
972.979
972.984
972.991
973.004
973.023
973.049
973.084
973.129
973.185
973.255
973.339
973.438
973.554
973.687
973.839
974.011
974.202
974.412
974.643
974.894
975.163
975.451
975.757
976.079
976.417
976.769
977.133
977.509
977.894
978.287
978.686
979.09
979.497
979.905
980.314
980.721
981.126
981.527
981.923
982.312
982.695
983.07
983.437
983.794
984.141
984.479
984.805
985.12
985.424
985.717
985.998
986.268
986.525
986.771
987.006
987.229
987.441
987.641
987.83
988.009
988.177
988.334
988.481
988.617
988.744
988.86
988.966
989.062
989.147
989.221
989.284
989.336
989.375
989.402
989.416
989.415
989.399
989.368
989.32
989.255
989.172
989.07
988.949
988.809
988.648
988.468
988.268
988.049
987.811
987.555
987.282
986.994
986.691
986.376
986.05
985.715
985.373
985.026
984.677
984.327
983.98
983.636
983.298
982.969
982.649
982.342
982.047
981.768
981.505
981.259
981.032
980.824
980.635
980.466
980.317
980.186
980.074
979.979
979.899
979.832
979.777
979.731
979.69
979.651
979.612
979.572
979.514
979.445
979.375
979.272
979.119
978.98
978.835
978.558
978.273
978.115
977.784
977.304
977.083
976.857
976.437
976.246
976.174
976.141
1017.53
1017.58
1017.49
1017.17
1017.07
1016.9
1016.5
1016.28
1016.05
1015.72
1015.45
1015.23
1014.96
1014.69
1014.46
1014.23
1013.99
1013.75
1013.53
1013.31
1013.08
1012.85
1012.63
1012.4
1012.17
1011.93
1011.69
1011.44
1011.19
1010.93
1010.66
1010.38
1010.09
1009.79
1009.48
1009.16
1008.82
1008.47
1008.11
1007.73
1007.33
1006.92
1006.49
1006.04
1005.58
1005.09
1004.58
1004.06
1003.51
1002.94
1002.35
1001.74
1001.11
1000.46
999.79
999.101
998.392
997.668
996.927
996.173
995.406
994.629
993.843
993.051
992.255
991.457
990.661
989.868
989.082
988.303
987.536
986.781
986.042
985.32
984.617
983.934
983.273
982.634
982.02
981.429
980.863
980.321
979.805
979.313
978.845
978.402
977.981
977.584
977.209
976.854
976.52
976.206
975.911
975.633
975.372
975.128
974.899
974.684
974.484
974.296
974.121
973.958
973.805
973.664
973.533
973.411
973.298
973.195
973.099
973.011
972.931
972.857
972.791
972.732
972.679
972.632
972.591
972.556
972.527
972.503
972.484
972.47
972.46
972.456
972.455
972.458
972.465
972.475
972.489
972.505
972.524
972.545
972.568
972.593
972.618
972.645
972.672
972.699
972.726
972.752
972.777
972.801
972.823
972.844
972.862
972.878
972.892
972.904
972.913
972.92
972.926
972.929
972.931
972.933
972.934
972.936
972.939
972.945
972.953
972.967
972.986
973.013
973.049
973.095
973.152
973.222
973.307
973.407
973.524
973.659
973.813
973.986
974.179
974.392
974.625
974.878
975.15
975.441
975.749
976.074
976.414
976.768
977.135
977.513
977.9
978.295
978.696
979.101
979.509
979.918
980.328
980.736
981.141
981.542
981.938
982.327
982.71
983.085
983.451
983.808
984.155
984.491
984.817
985.132
985.436
985.729
986.009
986.279
986.536
986.782
987.017
987.241
987.453
987.654
987.843
988.023
988.191
988.35
988.498
988.636
988.763
988.881
988.989
989.086
989.173
989.25
989.315
989.369
989.41
989.439
989.455
989.457
989.444
989.415
989.37
989.307
989.225
989.125
989.005
988.865
988.705
988.523
988.322
988.101
987.86
987.6
987.323
987.029
986.721
986.399
986.066
985.724
985.375
985.021
984.664
984.307
983.952
983.6
983.255
982.919
982.593
982.278
981.978
981.693
981.425
981.175
980.944
980.733
980.542
980.371
980.221
980.091
979.981
979.888
979.812
979.75
979.701
979.662
979.631
979.604
979.573
979.545
979.512
979.456
979.387
979.323
979.217
979.053
978.922
978.783
978.5
978.231
978.089
977.799
977.4
977.211
977.073
976.811
976.658
976.739
1017.23
1017.24
1017.14
1017.02
1016.89
1016.6
1016.43
1016.26
1015.94
1015.7
1015.51
1015.25
1014.99
1014.78
1014.56
1014.32
1014.09
1013.88
1013.66
1013.44
1013.22
1013
1012.78
1012.55
1012.32
1012.09
1011.85
1011.6
1011.35
1011.09
1010.82
1010.54
1010.25
1009.96
1009.64
1009.32
1008.98
1008.63
1008.26
1007.88
1007.48
1007.06
1006.63
1006.17
1005.7
1005.21
1004.69
1004.15
1003.6
1003.02
1002.41
1001.79
1001.14
1000.48
999.789
999.081
998.354
997.609
996.848
996.073
995.285
994.486
993.678
992.864
992.048
991.23
990.414
989.602
988.798
988.004
987.222
986.455
985.705
984.973
984.263
983.576
982.911
982.271
981.657
981.069
980.507
979.971
979.46
978.976
978.517
978.083
977.674
977.287
976.923
976.58
976.257
975.954
975.67
975.403
975.152
974.918
974.698
974.492
974.3
974.12
973.952
973.795
973.648
973.511
973.384
973.265
973.155
973.053
972.959
972.872
972.791
972.718
972.651
972.59
972.535
972.486
972.443
972.405
972.373
972.346
972.324
972.307
972.295
972.288
972.285
972.286
972.291
972.301
972.314
972.33
972.35
972.372
972.397
972.424
972.452
972.482
972.514
972.545
972.577
972.609
972.64
972.67
972.698
972.725
972.75
972.772
972.793
972.811
972.826
972.839
972.85
972.859
972.866
972.872
972.878
972.883
972.89
972.899
972.911
972.928
972.95
972.98
973.019
973.067
973.127
973.2
973.287
973.39
973.51
973.648
973.804
973.98
974.176
974.392
974.628
974.884
975.159
975.452
975.763
976.091
976.433
976.789
977.158
977.537
977.925
978.321
978.723
979.128
979.536
979.946
980.355
980.762
981.167
981.567
981.961
982.349
982.731
983.104
983.469
983.824
984.17
984.505
984.83
985.144
985.447
985.738
986.018
986.287
986.544
986.79
987.024
987.248
987.46
987.662
987.852
988.032
988.202
988.361
988.511
988.65
988.78
988.899
989.008
989.107
989.196
989.274
989.342
989.398
989.442
989.473
989.492
989.496
989.485
989.459
989.416
989.355
989.275
989.176
989.057
988.918
988.758
988.576
988.373
988.149
987.906
987.642
987.36
987.062
986.747
986.42
986.08
985.731
985.375
985.013
984.648
984.284
983.921
983.562
983.209
982.866
982.533
982.212
981.905
981.614
981.341
981.087
980.852
980.637
980.444
980.272
980.121
979.991
979.882
979.792
979.719
979.664
979.621
979.59
979.568
979.553
979.537
979.517
979.498
979.473
979.419
979.354
979.296
979.187
979.026
978.906
978.763
978.5
978.275
978.121
977.865
977.6
977.441
977.296
977.191
977.17
1017
1016.95
1016.88
1016.84
1016.67
1016.48
1016.36
1016.12
1015.9
1015.72
1015.49
1015.26
1015.06
1014.85
1014.62
1014.41
1014.2
1013.99
1013.78
1013.56
1013.35
1013.14
1012.92
1012.7
1012.47
1012.24
1012.01
1011.77
1011.52
1011.26
1010.99
1010.71
1010.43
1010.13
1009.82
1009.49
1009.15
1008.8
1008.43
1008.05
1007.64
1007.22
1006.78
1006.32
1005.84
1005.33
1004.81
1004.26
1003.69
1003.1
1002.48
1001.84
1001.18
1000.5
999.792
999.064
998.316
997.549
996.765
995.966
995.154
994.331
993.499
992.661
991.82
990.979
990.141
989.308
988.484
987.672
986.874
986.093
985.33
984.589
983.87
983.177
982.51
981.869
981.256
980.67
980.112
979.583
979.08
978.605
978.156
977.733
977.334
976.96
976.608
976.277
975.967
975.676
975.404
975.149
974.911
974.687
974.478
974.282
974.098
973.927
973.766
973.616
973.475
973.343
973.22
973.105
972.997
972.897
972.804
972.717
972.636
972.562
972.493
972.43
972.373
972.321
972.274
972.232
972.196
972.165
972.139
972.118
972.102
972.091
972.084
972.082
972.085
972.092
972.103
972.118
972.137
972.159
972.185
972.214
972.245
972.278
972.313
972.349
972.386
972.424
972.461
972.498
972.534
972.568
972.601
972.632
972.661
972.687
972.711
972.732
972.751
972.767
972.783
972.796
972.809
972.821
972.835
972.85
972.868
972.891
972.918
972.954
972.997
973.05
973.115
973.193
973.285
973.392
973.517
973.659
973.819
973.999
974.199
974.419
974.658
974.917
975.195
975.491
975.805
976.134
976.478
976.836
977.205
977.585
977.973
978.369
978.77
979.175
979.582
979.99
980.397
980.802
981.205
981.602
981.994
982.38
982.759
983.129
983.491
983.844
984.187
984.52
984.843
985.154
985.455
985.745
986.023
986.291
986.547
986.792
987.026
987.249
987.461
987.662
987.854
988.034
988.205
988.365
988.516
988.657
988.788
988.909
989.02
989.122
989.213
989.293
989.363
989.421
989.468
989.501
989.522
989.529
989.52
989.496
989.455
989.396
989.319
989.221
989.104
988.965
988.804
988.622
988.418
988.193
987.946
987.68
987.394
987.09
986.77
986.437
986.091
985.735
985.371
985.002
984.63
984.258
983.888
983.522
983.162
982.811
982.471
982.143
981.83
981.534
981.255
980.996
980.756
980.538
980.342
980.168
980.017
979.888
979.779
979.692
979.624
979.573
979.538
979.516
979.502
979.496
979.497
979.495
979.485
979.477
979.459
979.408
979.349
979.298
979.19
979.036
978.927
978.79
978.556
978.363
978.224
978.019
977.809
977.694
977.609
977.523
1016.76
1016.75
1016.71
1016.62
1016.5
1016.4
1016.22
1016.03
1015.89
1015.69
1015.47
1015.29
1015.1
1014.89
1014.69
1014.5
1014.3
1014.09
1013.89
1013.69
1013.48
1013.27
1013.06
1012.85
1012.63
1012.4
1012.17
1011.93
1011.68
1011.43
1011.16
1010.89
1010.6
1010.3
1009.99
1009.67
1009.33
1008.98
1008.61
1008.22
1007.81
1007.39
1006.94
1006.47
1005.99
1005.47
1004.94
1004.38
1003.8
1003.19
1002.56
1001.91
1001.23
1000.52
999.797
999.048
998.277
997.486
996.677
995.852
995.013
994.163
993.304
992.439
991.571
990.704
989.841
988.985
988.139
987.307
986.491
985.693
984.917
984.165
983.438
982.739
982.069
981.427
980.814
980.233
979.68
979.157
978.664
978.199
977.761
977.35
976.965
976.604
976.266
975.949
975.653
975.376
975.118
974.876
974.65
974.439
974.24
974.055
973.882
973.719
973.567
973.423
973.289
973.163
973.044
972.932
972.827
972.729
972.637
972.55
972.469
972.393
972.322
972.256
972.195
972.14
972.088
972.042
972.001
971.965
971.933
971.906
971.885
971.868
971.856
971.85
971.848
971.851
971.859
971.872
971.889
971.91
971.935
971.964
971.997
972.032
972.071
972.111
972.153
972.197
972.241
972.285
972.329
972.373
972.416
972.456
972.495
972.532
972.567
972.599
972.629
972.656
972.681
972.705
972.728
972.751
972.774
972.799
972.826
972.857
972.894
972.937
972.988
973.049
973.121
973.206
973.305
973.418
973.549
973.697
973.863
974.048
974.253
974.477
974.72
974.982
975.263
975.562
975.877
976.208
976.553
976.911
977.281