# vtk DataFile Version 2.0
LBE mesh
ASCII
DATASET STRUCTURED_POINTS
DIMENSIONS 300 100 1
ASPECT_RATIO 1 1 1
ORIGIN 0 0 0
POINT_DATA 30000
SCALARS rho double 1
LOOKUP_TABLE default
1047.26
1015.61
1014.89
1021.35
1019.51
1015.6
1015.4
1015.9
1015.12
1014.32
1014.14
1013.97
1013.59
1013.27
1013.07
1012.84
1012.59
1012.36
1012.15
1011.93
1011.7
1011.48
1011.26
1011.04
1010.81
1010.58
1010.35
1010.1
1009.85
1009.6
1009.33
1009.06
1008.78
1008.49
1008.18
1007.87
1007.54
1007.2
1006.85
1006.49
1006.11
1005.71
1005.3
1004.87
1004.43
1003.97
1003.5
1003
1002.49
1001.96
1001.42
1000.85
1000.27
999.677
999.063
998.434
997.789
997.13
996.458
995.773
995.078
994.372
993.658
992.937
992.212
991.482
990.751
990.02
989.291
988.566
987.847
987.135
986.432
985.741
985.061
984.396
983.746
983.114
982.498
981.902
981.326
980.77
980.236
979.723
979.232
978.764
978.317
977.894
977.492
977.113
976.756
976.42
976.105
975.811
975.537
975.283
975.048
974.831
974.632
974.451
974.285
974.137
974.003
973.884
973.779
973.688
973.61
973.543
973.488
973.445
973.411
973.388
973.374
973.368
973.372
973.382
973.4
973.425
973.456
973.493
973.535
973.582
973.634
973.69
973.749
973.811
973.877
973.945
974.015
974.087
974.16
974.235
974.31
974.385
974.461
974.536
974.611
974.685
974.758
974.83
974.9
974.968
975.034
975.098
975.159
975.217
975.272
975.325
975.373
975.419
975.46
975.498
975.531
975.561
975.586
975.608
975.625
975.638
975.646
975.651
975.652
975.649
975.644
975.635
975.625
975.613
975.601
975.589
975.579
975.571
975.567
975.568
975.576
975.591
975.616
975.652
975.699
975.761
975.837
975.928
976.037
976.163
976.307
976.47
976.651
976.852
977.071
977.309
977.564
977.836
978.125
978.428
978.744
979.072
979.411
979.759
980.114
980.474
980.839
981.206
981.573
981.939
982.303
982.664
983.018
983.367
983.708
984.041
984.364
984.677
984.979
985.269
985.547
985.813
986.066
986.306
986.533
986.747
986.948
987.135
987.311
987.473
987.622
987.759
987.884
987.997
988.099
988.189
988.267
988.335
988.392
988.439
988.475
988.5
988.515
988.52
988.514
988.498
988.47
988.43
988.38
988.317
988.242
988.154
988.053
987.938
987.809
987.665
987.505
987.331
987.14
986.934
986.711
986.473
986.218
985.947
985.661
985.359
985.043
984.713
984.371
984.016
983.651
983.276
982.894
982.504
982.109
981.711
981.31
980.909
980.509
980.111
979.718
979.33
978.948
978.574
978.208
977.851
977.502
977.163
976.833
976.506
976.184
975.872
975.554
975.213
974.883
974.564
974.142
973.654
973.319
972.852
971.814
971.101
971.196
969.214
965.444
967.42
968.194
945.266
1030.18
1026.64
1022.55
1017.35
1017.53
1017.68
1016.5
1015.33
1015.09
1014.83
1014.34
1013.94
1013.7
1013.43
1013.14
1012.88
1012.66
1012.42
1012.19
1011.96
1011.74
1011.51
1011.29
1011.06
1010.83
1010.59
1010.35
1010.11
1009.85
1009.6
1009.33
1009.05
1008.77
1008.47
1008.17
1007.85
1007.52
1007.18
1006.83
1006.46
1006.08
1005.68
1005.27
1004.84
1004.39
1003.93
1003.46
1002.96
1002.45
1001.92
1001.37
1000.81
1000.23
999.63
999.016
998.387
997.742
997.084
996.412
995.728
995.034
994.33
993.617
992.898
992.174
991.447
990.719
989.99
989.264
988.542
987.826
987.117
986.417
985.729
985.053
984.391
983.744
983.115
982.503
981.909
981.336
980.784
980.252
979.741
979.253
978.787
978.343
977.921
977.522
977.144
976.788
976.454
976.14
975.847
975.574
975.321
975.087
974.871
974.672
974.491
974.326
974.178
974.044
973.926
973.821
973.729
973.651
973.585
973.53
973.486
973.453
973.429
973.415
973.41
973.413
973.423
973.441
973.466
973.497
973.534
973.576
973.623
973.675
973.731
973.79
973.852
973.918
973.986
974.057
974.128
974.202
974.276
974.351
974.427
974.503
974.578
974.652
974.726
974.799
974.871
974.941
975.008
975.074
975.137
975.198
975.256
975.311
975.363
975.411
975.455
975.497
975.534
975.567
975.596
975.621
975.642
975.659
975.671
975.68
975.684
975.685
975.682
975.676
975.668
975.658
975.646
975.634
975.622
975.611
975.604
975.599
975.6
975.607
975.622
975.646
975.681
975.727
975.787
975.861
975.951
976.058
976.181
976.323
976.483
976.662
976.86
977.077
977.312
977.564
977.833
978.119
978.419
978.732
979.058
979.394
979.739
980.092
980.451
980.813
981.179
981.544
981.91
982.272
982.631
982.985
983.333
983.674
984.006
984.329
984.642
984.944
985.234
985.513
985.779
986.033
986.273
986.501
986.715
986.917
987.105
987.28
987.443
987.594
987.731
987.857
987.971
988.073
988.163
988.242
988.311
988.368
988.415
988.452
988.478
988.493
988.499
988.493
988.477
988.45
988.412
988.362
988.3
988.226
988.14
988.039
987.926
987.798
987.655
987.497
987.325
987.136
986.932
986.711
986.474
986.221
985.953
985.668
985.368
985.054
984.726
984.385
984.032
983.668
983.295
982.912
982.523
982.128
981.73
981.329
980.927
980.525
980.126
979.731
979.34
978.955
978.578
978.208
977.847
977.493
977.147
976.809
976.479
976.151
975.821
975.495
975.166
974.807
974.428
974.064
973.629
973.055
972.522
972.044
971.038
969.742
969.203
968.051
963.956
960.243
958.394
1022.09
1026.89
1022.22
1017.92
1018.16
1017.87
1016.48
1015.53
1015.33
1014.97
1014.44
1014.06
1013.8
1013.52
1013.22
1012.96
1012.72
1012.48
1012.24
1012.01
1011.78
1011.55
1011.32
1011.09
1010.85
1010.61
1010.37
1010.12
1009.87
1009.61
1009.34
1009.06
1008.77
1008.47
1008.17
1007.85
1007.52
1007.17
1006.82
1006.45
1006.06
1005.66
1005.25
1004.82
1004.37
1003.91
1003.43
1002.94
1002.42
1001.89
1001.34
1000.78
1000.19
999.596
998.981
998.35
997.705
997.046
996.373
995.689
994.993
994.289
993.576
992.857
992.133
991.406
990.678
989.951
989.225
988.504
987.789
987.082
986.384
985.697
985.023
984.363
983.718
983.091
982.482
981.891
981.321
980.77
980.241
979.734
979.248
978.784
978.343
977.923
977.526
977.151
976.798
976.465
976.153
975.862
975.591
975.339
975.106
974.892
974.695
974.515
974.351
974.204
974.071
973.953
973.849
973.758
973.68
973.614
973.56
973.517
973.484
973.461
973.447
973.442
973.445
973.456
973.475
973.5
973.531
973.568
973.611
973.659
973.711
973.767
973.827
973.889
973.956
974.024
974.095
974.167
974.241
974.315
974.391
974.467
974.542
974.618
974.693
974.767
974.84
974.912
974.981
975.049
975.115
975.178
975.238
975.296
975.351
975.402
975.45
975.494
975.535
975.572
975.605
975.633
975.658
975.679
975.695
975.707
975.715
975.719
975.719
975.716
975.71
975.701
975.69
975.677
975.664
975.651
975.639
975.63
975.625
975.623
975.629
975.642
975.663
975.696
975.74
975.797
975.868
975.955
976.059
976.18
976.319
976.476
976.652
976.848
977.062
977.294
977.544
977.811
978.095
978.393
978.705
979.03
979.365
979.71
980.062
980.42
980.782
981.147
981.513
981.878
982.241
982.6
982.954
983.302
983.643
983.976
984.3
984.613
984.915
985.207
985.486
985.753
986.007
986.248
986.477
986.692
986.894
987.083
987.259
987.423
987.573
987.712
987.838
987.952
988.054
988.145
988.225
988.294
988.352
988.399
988.436
988.463
988.479
988.485
988.48
988.465
988.439
988.401
988.353
988.293
988.22
988.135
988.037
987.925
987.799
987.658
987.503
987.332
987.145
986.943
986.724
986.489
986.238
985.971
985.689
985.391
985.078
984.751
984.41
984.058
983.694
983.32
982.938
982.548
982.152
981.752
981.349
980.945
980.541
980.139
979.741
979.347
978.958
978.577
978.203
977.837
977.48
977.13
976.786
976.451
976.121
975.784
975.445
975.121
974.77
974.357
973.974
973.619
973.024
972.305
971.999
971.364
969.446
968.612
969.433
965.215
959.771
963.849
1021.81
1020.54
1020
1021.18
1018.67
1016.57
1016.53
1016.44
1015.53
1014.82
1014.59
1014.32
1013.91
1013.57
1013.33
1013.07
1012.8
1012.55
1012.31
1012.08
1011.84
1011.6
1011.37
1011.13
1010.9
1010.65
1010.41
1010.16
1009.9
1009.63
1009.36
1009.08
1008.79
1008.49
1008.18
1007.86
1007.53
1007.18
1006.83
1006.45
1006.07
1005.67
1005.25
1004.82
1004.37
1003.91
1003.43
1002.93
1002.41
1001.88
1001.33
1000.76
1000.17
999.572
998.955
998.321
997.673
997.011
996.336
995.648
994.95
994.243
993.528
992.806
992.08
991.351
990.621
989.892
989.166
988.444
987.728
987.02
986.322
985.635
984.962
984.303
983.66
983.034
982.427
981.839
981.27
980.723
980.197
979.692
979.209
978.749
978.31
977.895
977.501
977.129
976.778
976.449
976.14
975.852
975.583
975.334
975.104
974.891
974.697
974.519
974.357
974.211
974.081
973.964
973.862
973.772
973.696
973.631
973.578
973.536
973.504
973.481
973.469
973.464
973.468
973.48
973.499
973.525
973.557
973.595
973.638
973.686
973.739
973.795
973.856
973.92
973.986
974.055
974.127
974.199
974.274
974.349
974.425
974.501
974.578
974.654
974.729
974.804
974.877
974.949
975.019
975.087
975.153
975.216
975.277
975.335
975.389
975.441
975.489
975.533
975.573
975.609
975.642
975.671
975.695
975.715
975.731
975.742
975.749
975.753
975.752
975.748
975.741
975.73
975.718
975.704
975.689
975.674
975.659
975.648
975.639
975.635
975.638
975.647
975.666
975.694
975.735
975.788
975.856
975.939
976.039
976.157
976.293
976.448
976.622
976.814
977.026
977.257
977.506
977.772
978.055
978.353
978.665
978.99
979.325
979.67
980.023
980.382
980.745
981.111
981.478
981.844
982.208
982.569
982.924
983.274
983.616
983.95
984.275
984.589
984.893
985.185
985.465
985.733
985.988
986.23
986.459
986.675
986.878
987.068
987.244
987.408
987.56
987.698
987.825
987.939
988.042
988.133
988.213
988.283
988.341
988.389
988.426
988.454
988.471
988.478
988.474
988.46
988.435
988.399
988.352
988.294
988.223
988.14
988.044
987.934
987.81
987.672
987.519
987.351
987.167
986.967
986.75
986.517
986.268
986.002
985.721
985.424
985.111
984.785
984.444
984.091
983.727
983.352
982.968
982.576
982.178
981.776
981.37
980.963
980.556
980.151
979.749
979.351
978.959
978.573
978.196
977.826
977.464
977.112
976.767
976.425
976.09
975.763
975.424
975.07
974.735
974.385
973.934
973.484
973.133
972.539
971.621
971.156
970.738
968.85
967.199
967.257
966.36
964.625
1021.8
1019.62
1019.55
1019.44
1017.96
1017.54
1016.97
1016.12
1015.51
1015.21
1014.83
1014.37
1014.02
1013.74
1013.46
1013.16
1012.9
1012.65
1012.41
1012.16
1011.92
1011.68
1011.44
1011.2
1010.96
1010.72
1010.47
1010.21
1009.95
1009.69
1009.41
1009.13
1008.84
1008.54
1008.22
1007.9
1007.57
1007.22
1006.86
1006.48
1006.1
1005.69
1005.27
1004.84
1004.39
1003.92
1003.44
1002.93
1002.42
1001.88
1001.32
1000.75
1000.16
999.557
998.935
998.296
997.643
996.976
996.295
995.603
994.899
994.187
993.467
992.74
992.009
991.276
990.541
989.808
989.078
988.353
987.634
986.924
986.225
985.537
984.863
984.204
983.562
982.937
982.331
981.745
981.179
980.635
980.111
979.61
979.132
978.675
978.241
977.829
977.439
977.072
976.726
976.401
976.096
975.812
975.548
975.303
975.076
974.867
974.676
974.501
974.342
974.199
974.071
973.957
973.857
973.77
973.695
973.632
973.581
973.54
973.509
973.489
973.477
973.474
973.479
973.492
973.511
973.538
973.571
973.609
973.653
973.702
973.756
973.813
973.874
973.938
974.006
974.076
974.147
974.221
974.296
974.372
974.449
974.526
974.603
974.68
974.756
974.831
974.905
974.978
975.049
975.117
975.184
975.248
975.309
975.367
975.422
975.474
975.522
975.566
975.606
975.643
975.675
975.704
975.728
975.747
975.762
975.773
975.779
975.781
975.78
975.775
975.765
975.753
975.739
975.722
975.705
975.687
975.67
975.655
975.642
975.635
975.633
975.638
975.652
975.677
975.713
975.762
975.825
975.905
976.002
976.116
976.249
976.401
976.573
976.764
976.974
977.204
977.453
977.719
978.002
978.3
978.613
978.939
979.276
979.623
979.978
980.338
980.703
981.071
981.44
981.809
982.175
982.538
982.896
983.247
983.591
983.927
984.253
984.569
984.874
985.167
985.448
985.717
985.973
986.217
986.447
986.663
986.867
987.057
987.234
987.399
987.55
987.689
987.816
987.931
988.034
988.126
988.207
988.276
988.336
988.384
988.422
988.45
988.468
988.476
988.474
988.461
988.438
988.404
988.358
988.302
988.234
988.153
988.059
987.952
987.831
987.696
987.546
987.38
987.198
987.001
986.786
986.555
986.307
986.043
985.763
985.466
985.154
984.827
984.486
984.132
983.766
983.389
983.003
982.608
982.207
981.801
981.392
980.982
980.571
980.162
979.756
979.354
978.959
978.57
978.19
977.817
977.453
977.097
976.753
976.412
976.073
975.743
975.42
975.071
974.71
974.387
974.011
973.495
973.072
972.749
971.938
970.982
970.879
970.082
967.87
967.548
967.588
965.844
1019.71
1019.73
1019.31
1017.84
1017.97
1017.82
1016.64
1016.01
1015.85
1015.42
1014.84
1014.48
1014.23
1013.91
1013.57
1013.29
1013.04
1012.78
1012.52
1012.27
1012.03
1011.79
1011.54
1011.3
1011.06
1010.81
1010.56
1010.3
1010.04
1009.77
1009.49
1009.2
1008.91
1008.61
1008.29
1007.97
1007.63
1007.28
1006.92
1006.54
1006.15
1005.74
1005.32
1004.88
1004.43
1003.96
1003.47
1002.96
1002.44
1001.9
1001.34
1000.76
1000.16
999.549
998.92
998.275
997.614
996.939
996.251
995.551
994.84
994.119
993.391
992.656
991.918
991.177
990.436
989.696
988.96
988.23
987.506
986.792
986.089
985.399
984.723
984.063
983.42
982.796
982.191
981.607
981.044
980.502
979.982
979.486
979.011
978.56
978.131
977.724
977.34
976.978
976.637
976.318
976.02
975.741
975.482
975.242
975.02
974.816
974.629
974.459
974.304
974.165
974.041
973.93
973.833
973.749
973.677
973.616
973.567
973.528
973.499
973.48
973.47
973.468
973.474
973.488
973.509
973.536
973.57
973.609
973.654
973.703
973.757
973.815
973.877
973.942
974.01
974.08
974.153
974.227
974.303
974.379
974.457
974.535
974.613
974.691
974.768
974.844
974.919
974.993
975.064
975.135
975.202
975.266
975.328
975.387
975.443
975.495
975.544
975.589
975.63
975.667
975.7
975.728
975.752
975.771
975.786
975.796
975.801
975.802
975.799
975.792
975.781
975.767
975.75
975.731
975.71
975.688
975.668
975.648
975.632
975.62
975.613
975.614
975.623
975.643
975.675
975.719
975.779
975.855
975.948
976.059
976.189
976.339
976.509
976.699
976.909
977.139
977.388
977.655
977.939
978.24
978.554
978.882
979.222
979.571
979.928
980.292
980.66
981.031
981.402
981.774
982.143
982.508
982.868
983.221
983.567
983.905
984.233
984.551
984.857
985.152
985.435
985.705
985.962
986.206
986.437
986.655
986.859
987.05
987.228
987.392
987.545
987.684
987.811
987.927
988.03
988.122
988.204
988.274
988.334
988.383
988.422
988.451
988.47
988.479
988.478
988.467
988.446
988.414
988.371
988.317
988.251
988.173
988.082
987.978
987.86
987.728
987.581
987.418
987.239
987.043
986.831
986.602
986.356
986.093
985.813
985.517
985.204
984.877
984.534
984.179
983.81
983.431
983.041
982.644
982.239
981.829
981.416
981.002
980.587
980.174
979.764
979.36
978.961
978.569
978.186
977.812
977.447
977.091
976.743
976.407
976.076
975.739
975.414
975.103
974.751
974.369
974.053
973.692
973.115
972.639
972.384
971.58
970.489
970.245
969.779
968.415
967.531
967.472
1018.66
1019.05
1018.57
1017.93
1017.74
1017
1016.63
1016.38
1015.82
1015.29
1015.01
1014.72
1014.34
1013.99
1013.73
1013.46
1013.18
1012.91
1012.66
1012.41
1012.16
1011.91
1011.67
1011.43
1011.18
1010.93
1010.67
1010.41
1010.15
1009.87
1009.59
1009.31
1009.01
1008.7
1008.39
1008.06
1007.72
1007.37
1007
1006.62
1006.23
1005.82
1005.39
1004.95
1004.49
1004.01
1003.52
1003.01
1002.48
1001.93
1001.36
1000.77
1000.17
999.549
998.911
998.256
997.586
996.901
996.202
995.491
994.769
994.038
993.299
992.554
991.805
991.054
990.303
989.554
988.81
988.071
987.342
986.621
985.913
985.219
984.54
983.878
983.234
982.609
982.006
981.423
980.862
980.324
979.809
979.316
978.847
978.401
977.979
977.579
977.201
976.846
976.513
976.2
975.909
975.637
975.384
975.151
974.936
974.738
974.557
974.392
974.243
974.109
973.988
973.882
973.789
973.708
973.64
973.582
973.536
973.499
973.473
973.455
973.447
973.447
973.454
973.469
973.491
973.519
973.553
973.593
973.637
973.687
973.741
973.8
973.862
973.927
973.995
974.065
974.138
974.213
974.289
974.366
974.444
974.523
974.602
974.68
974.758
974.836
974.912
974.987
975.06
975.131
975.2
975.266
975.329
975.39
975.447
975.501
975.551
975.597
975.639
975.676
975.709
975.738
975.762
975.782
975.796
975.806
975.81
975.81
975.806
975.797
975.784
975.768
975.748
975.726
975.702
975.677
975.652
975.628
975.608
975.591
975.58
975.576
975.581
975.596
975.623
975.663
975.719
975.792
975.881
975.99
976.119
976.267
976.436
976.626
976.837
977.067
977.317
977.586
977.872
978.175
978.492
978.823
979.166
979.518
979.879
980.245
980.617
980.99
981.365
981.739
982.111
982.479
982.841
983.197
983.546
983.885
984.215
984.535
984.842
985.139
985.423
985.694
985.952
986.197
986.429
986.647
986.852
987.044
987.222
987.387
987.54
987.68
987.808
987.924
988.028
988.12
988.203
988.274
988.334
988.385
988.425
988.455
988.475
988.486
988.487
988.477
988.458
988.428
988.388
988.337
988.274
988.199
988.111
988.01
987.896
987.767
987.623
987.463
987.286
987.094
986.884
986.656
986.412
986.15
985.87
985.574
985.261
984.932
984.588
984.23
983.859
983.477
983.084
982.683
982.274
981.861
981.444
981.025
980.606
980.19
979.777
979.368
978.967
978.574
978.189
977.813
977.448
977.094
976.748
976.411
976.087
975.766
975.434
975.121
974.82
974.457
974.074
973.784
973.393
972.773
972.379
972.086
971.172
970.383
970.142
969.327
968.483
968.263
1018.39
1018.08
1017.85
1017.97
1017.34
1016.76
1016.66
1016.23
1015.72
1015.43
1015.15
1014.76
1014.42
1014.16
1013.88
1013.58
1013.31
1013.06
1012.81
1012.55
1012.31
1012.06
1011.82
1011.57
1011.32
1011.07
1010.81
1010.55
1010.28
1010.01
1009.72
1009.44
1009.14
1008.83
1008.51
1008.18
1007.84
1007.48
1007.11
1006.73
1006.33
1005.92
1005.49
1005.04
1004.57
1004.09
1003.59
1003.07
1002.53
1001.97
1001.4
1000.8
1000.19
999.557
998.907
998.241
997.558
996.86
996.148
995.424
994.688
993.944
993.191
992.433
991.671
990.907
990.144
989.384
988.628
987.88
987.141
986.413
985.698
984.999
984.315
983.65
983.004
982.379
981.776
981.195
980.637
980.102
979.591
979.104
978.641
978.202
977.786
977.394
977.025
976.678
976.352
976.048
975.765
975.501
975.257
975.031
974.823
974.633
974.459
974.3
974.157
974.029
973.915
973.814
973.725
973.649
973.584
973.53
973.487
973.453
973.43
973.414
973.407
973.409
973.417
973.433
973.455
973.484
973.518
973.558
973.603
973.652
973.706
973.764
973.825
973.89
973.957
974.028
974.1
974.174
974.251
974.328
974.406
974.485
974.564
974.643
974.722
974.801
974.878
974.954
975.029
975.102
975.172
975.24
975.305
975.367
975.427
975.482
975.534
975.582
975.626
975.665
975.699
975.729
975.754
975.774
975.788
975.798
975.803
975.802
975.797
975.786
975.772
975.753
975.731
975.706
975.679
975.651
975.622
975.595
975.57
975.549
975.534
975.526
975.527
975.538
975.561
975.598
975.651
975.72
975.808
975.916
976.043
976.191
976.36
976.55
976.762
976.994
977.246
977.516
977.805
978.111
978.432
978.766
979.112
979.468
979.831
980.201
980.576
980.953
981.331
981.708
982.082
982.453
982.818
983.176
983.526
983.867
984.199
984.519
984.829
985.126
985.411
985.683
985.942
986.188
986.42
986.639
986.844
987.037
987.216
987.382
987.535
987.676
987.804
987.92
988.025
988.119
988.202
988.274
988.336
988.387
988.429
988.461
988.483
988.495
988.498
988.491
988.474
988.446
988.409
988.36
988.3
988.229
988.145
988.047
987.936
987.81
987.669
987.512
987.339
987.149
986.941
986.716
986.473
986.212
985.933
985.636
985.323
984.992
984.646
984.286
983.912
983.526
983.13
982.725
982.313
981.896
981.475
981.052
980.63
980.21
979.793
979.383
978.979
978.584
978.199
977.824
977.459
977.106
976.767
976.432
976.107
975.801
975.493
975.165
974.864
974.585
974.215
973.818
973.557
973.177
972.526
972.123
971.846
971.085
970.312
969.971
969.512
968.705
1017.92
1017.72
1017.59
1017.4
1017.01
1016.86
1016.46
1016.01
1015.8
1015.51
1015.11
1014.8
1014.56
1014.28
1013.97
1013.71
1013.47
1013.21
1012.95
1012.7
1012.46
1012.22
1011.97
1011.72
1011.47
1011.22
1010.96
1010.7
1010.43
1010.16
1009.88
1009.59
1009.29
1008.98
1008.65
1008.32
1007.98
1007.62
1007.25
1006.86
1006.46
1006.04
1005.6
1005.15
1004.68
1004.19
1003.68
1003.15
1002.6
1002.04
1001.45
1000.84
1000.22
999.572
998.909
998.229
997.531
996.818
996.091
995.35
994.599
993.837
993.069
992.294
991.516
990.737
989.959
989.185
988.417
987.656
986.906
986.168
985.445
984.739
984.05
983.381
982.732
982.106
981.503
980.924
980.369
979.838
979.333
978.852
978.396
977.964
977.556
977.173
976.812
976.474
976.158
975.864
975.589
975.335
975.1
974.884
974.684
974.502
974.337
974.186
974.05
973.929
973.821
973.726
973.643
973.571
973.511
973.461
973.422
973.391
973.37
973.357
973.352
973.355
973.364
973.381
973.403
973.432
973.466
973.505
973.55
973.598
973.651
973.708
973.768
973.831
973.898
973.967
974.037
974.111
974.186
974.262
974.34
974.418
974.497
974.576
974.656
974.734
974.813
974.89
974.966
975.04
975.112
975.183
975.25
975.315
975.376
975.434
975.489
975.539
975.585
975.627
975.663
975.695
975.721
975.743
975.759
975.769
975.774
975.774
975.768
975.757
975.742
975.722
975.698
975.671
975.642
975.611
975.58
975.549
975.521
975.497
975.479
975.467
975.465
975.473
975.494
975.529
975.579
975.647
975.734
975.84
975.967
976.115
976.285
976.477
976.69
976.924
977.179
977.452
977.744
978.053
978.377
978.715
979.064
979.423
979.79
980.163
980.541
980.921
981.301
981.681
982.057
982.43
982.797
983.156
983.508
983.851
984.183
984.505
984.815
985.113
985.399
985.671
985.931
986.177
986.41
986.629
986.835
987.027
987.207
987.373
987.527
987.668
987.797
987.915
988.021
988.116
988.2
988.273
988.336
988.389
988.433
988.466
988.49
988.505
988.51
988.505
988.491
988.466
988.432
988.386
988.33
988.261
988.18
988.086
987.979
987.856
987.719
987.565
987.395
987.208
987.003
986.779
986.537
986.277
985.999
985.702
985.388
985.056
984.709
984.346
983.97
983.581
983.181
982.772
982.356
981.935
981.511
981.084
980.659
980.236
979.818
979.405
979.001
978.605
978.219
977.846
977.484
977.132
976.795
976.473
976.153
975.843
975.557
975.263
974.944
974.663
974.397
974.022
973.648
973.4
972.986
972.408
972.042
971.635
970.97
970.455
969.961
969.285
1017.39
1017.42
1017.32
1016.98
1016.87
1016.68
1016.27
1016.03
1015.78
1015.44
1015.15
1014.91
1014.63
1014.34
1014.09
1013.85
1013.59
1013.33
1013.1
1012.86
1012.61
1012.37
1012.13
1011.89
1011.64
1011.38
1011.13
1010.87
1010.6
1010.33
1010.04
1009.75
1009.45
1009.14
1008.82
1008.48
1008.13
1007.77
1007.4
1007.01
1006.6
1006.18
1005.74
1005.28
1004.8
1004.3
1003.78
1003.25
1002.69
1002.11
1001.51
1000.89
1000.25
999.596
998.917
998.221
997.506
996.776
996.03
995.271
994.501
993.72
992.933
992.139
991.343
990.546
989.75
988.96
988.176
987.401
986.638
985.889
985.156
984.441
983.746
983.072
982.421
981.793
981.19
980.613
980.061
979.535
979.035
978.561
978.112
977.689
977.291
976.917
976.567
976.239
975.934
975.65
975.386
975.142
974.918
974.711
974.522
974.35
974.193
974.051
973.923
973.81
973.709
973.62
973.543
973.477
973.423
973.377
973.341
973.315
973.296
973.286
973.282
973.286
973.297
973.314
973.337
973.365
973.398
973.437
973.48
973.526
973.577
973.632
973.69
973.751
973.815
973.881
973.95
974.021
974.094
974.168
974.244
974.321
974.399
974.477
974.556
974.634
974.712
974.79
974.867
974.943
975.017
975.089
975.158
975.226
975.29
975.351
975.408
975.462
975.511
975.556
975.596
975.63
975.66
975.684
975.702
975.715
975.721
975.722
975.718
975.708
975.692
975.672
975.648
975.62
975.59
975.558
975.525
975.493
975.463
975.437
975.417
975.404
975.399
975.406
975.426
975.459
975.509
975.577
975.664
975.77
975.898
976.048
976.219
976.413
976.629
976.865
977.122
977.399
977.694
978.006
978.333
978.674
979.027
979.389
979.759
980.135
980.515
980.897
981.28
981.661
982.039
982.413
982.78
983.141
983.493
983.836
984.169
984.491
984.801
985.099
985.385
985.658
985.917
986.163
986.395
986.615
986.821
987.013
987.193
987.36
987.514
987.656
987.786
987.905
988.012
988.107
988.193
988.268
988.333
988.389
988.434
988.47
988.496
988.513
988.521
988.519
988.508
988.486
988.455
988.412
988.359
988.294
988.217
988.126
988.022
987.903
987.769
987.619
987.452
987.268
987.065
986.844
986.604
986.345
986.067
985.771
985.456
985.123
984.774
984.409
984.031
983.639
983.236
982.824
982.405
981.98
981.553
981.124
980.696
980.271
979.851
979.437
979.032
978.637
978.252
977.879
977.521
977.175
976.84
976.522
976.22
975.917
975.626
975.364
975.086
974.776
974.517
974.272
973.898
973.538
973.299
972.902
972.362
971.986
971.592
971.004
970.43
969.847
1017.1
1017.09
1016.98
1016.84
1016.69
1016.39
1016.21
1016.01
1015.68
1015.42
1015.21
1014.94
1014.66
1014.43
1014.2
1013.94
1013.7
1013.47
1013.24
1013
1012.76
1012.53
1012.29
1012.05
1011.8
1011.55
1011.3
1011.04
1010.77
1010.5
1010.22
1009.93
1009.63
1009.32
1008.99
1008.66
1008.31
1007.94
1007.57
1007.17
1006.76
1006.33
1005.89
1005.42
1004.94
1004.43
1003.91
1003.36
1002.79
1002.2
1001.59
1000.96
1000.3
999.626
998.931
998.216
997.483
996.732
995.966
995.187
994.394
993.592
992.783
991.968
991.15
990.332
989.517
988.707
987.906
987.115
986.337
985.575
984.831
984.107
983.404
982.725
982.07
981.441
980.839
980.263
979.715
979.194
978.7
978.234
977.794
977.38
976.992
976.629
976.29
975.974
975.681
975.409
975.157
974.925
974.712
974.517
974.338
974.176
974.029
973.897
973.779
973.674
973.581
973.499
973.429
973.369
973.32
973.28
973.248
973.225
973.21
973.202
973.201
973.206
973.217
973.234
973.257
973.284
973.317
973.354
973.394
973.439
973.487
973.539
973.593
973.651
973.711
973.774
973.839
973.906
973.976
974.047
974.12
974.194
974.269
974.345
974.422
974.499
974.576
974.654
974.731
974.807
974.882
974.955
975.028
975.097
975.164
975.229
975.29
975.347
975.4
975.449
975.493
975.532
975.566
975.594
975.616
975.632
975.642
975.646
975.644
975.636
975.622
975.604
975.581
975.554
975.524
975.493
975.46
975.429
975.399
975.373
975.352
975.339
975.335
975.342
975.362
975.396
975.447
975.516
975.604
975.712
975.842
975.994
976.168
976.365
976.583
976.823
977.083
977.362
977.661
977.976
978.305
978.649
979.004
979.369
979.741
980.119
980.5
980.884
981.267
981.649
982.028
982.402
982.77
983.13
983.482
983.825
984.157
984.478
984.787
985.085
985.369
985.641
985.9
986.145
986.377
986.596
986.801
986.993
987.173
987.34
987.495
987.637
987.768
987.887
987.995
988.093
988.18
988.257
988.324
988.382
988.43
988.468
988.497
988.517
988.528
988.529
988.521
988.503
988.475
988.436
988.386
988.325
988.251
988.165
988.064
987.949
987.819
987.672
987.508
987.327
987.127
986.908
986.67
986.413
986.135
985.84
985.525
985.191
984.841
984.475
984.094
983.7
983.296
982.881
982.459
982.032
981.602
981.171
980.741
980.314
979.893
979.479
979.074
978.68
978.298
977.927
977.571
977.232
976.905
976.59
976.295
976.017
975.734
975.465
975.228
974.968
974.677
974.442
974.203
973.853
973.528
973.261
972.867
972.421
972.009
971.544
971.031
970.352
1016.87
1016.81
1016.72
1016.67
1016.48
1016.28
1016.13
1015.88
1015.65
1015.45
1015.21
1014.95
1014.74
1014.51
1014.27
1014.04
1013.82
1013.59
1013.36
1013.13
1012.91
1012.68
1012.44
1012.21
1011.97
1011.72
1011.47
1011.22
1010.95
1010.68
1010.4
1010.11
1009.81
1009.5
1009.18
1008.84
1008.49
1008.13
1007.75
1007.35
1006.94
1006.5
1006.05
1005.58
1005.09
1004.57
1004.04
1003.48
1002.9
1002.3
1001.68
1001.03
1000.36
999.664
998.95
998.215
997.461
996.688
995.9
995.096
994.28
993.454
992.62
991.78
990.938
990.097
989.26
988.429
987.607
986.798
986.003
985.227
984.47
983.735
983.024
982.339
981.681
981.05
980.448
979.875
979.331
978.816
978.33
977.872
977.442
977.039
976.663
976.312
975.985
975.682
975.402
975.143
974.905
974.686
974.485
974.302
974.135
973.985
973.849
973.727
973.618
973.523
973.438
973.365
973.302
973.249
973.206
973.171
973.144
973.125
973.113
973.108
973.108
973.115
973.127
973.144
973.167
973.193
973.224
973.258
973.297
973.338
973.382
973.43
973.48
973.533
973.589
973.647
973.708
973.77
973.834
973.901
973.968
974.038
974.109
974.182
974.255
974.33
974.405
974.48
974.557
974.632
974.707
974.782
974.856
974.928
974.997
975.065
975.13
975.191
975.249
975.303
975.352
975.396
975.435
975.469
975.496
975.517
975.533
975.542
975.544
975.54
975.531
975.516
975.497
975.473
975.447
975.418
975.388
975.358
975.331
975.307
975.289
975.278
975.276
975.285
975.308
975.344
975.398
975.469
975.56
975.672
975.805
975.96
976.137
976.337
976.558
976.801
977.064
977.347
977.648
977.965
978.298
978.643
979
979.366
979.74
980.118
980.5
980.884
981.267
981.649
982.027
982.4
982.766
983.125
983.476
983.817
984.147
984.466
984.774
985.07
985.352
985.622
985.879
986.122
986.353
986.571
986.775
986.967
987.146
987.312
987.467
987.609
987.741
987.861
987.97
988.069
988.158
988.237
988.307
988.367
988.417
988.459
988.491
988.514
988.529
988.533
988.529
988.515
988.49
988.455
988.409
988.352
988.282
988.199
988.102
987.991
987.864
987.721
987.561
987.382
987.186
986.97
986.734
986.478
986.203
985.908
985.593
985.26
984.91
984.543
984.161
983.765
983.359
982.943
982.519
982.09
981.658
981.226
980.795
980.368
979.947
979.534
979.13
978.737
978.357
977.992
977.64
977.304
976.988
976.684
976.392
976.124
975.871
975.611
975.368
975.159
974.918
974.65
974.44
974.212
973.886
973.585
973.31
972.934
972.492
972.074
971.605
970.89
1016.64
1016.61
1016.56
1016.45
1016.32
1016.21
1016.01
1015.8
1015.64
1015.43
1015.2
1015
1014.79
1014.56
1014.35
1014.14
1013.92
1013.7
1013.48
1013.27
1013.05
1012.82
1012.6
1012.37
1012.13
1011.89
1011.65
1011.4
1011.14
1010.87
1010.59
1010.3
1010.01
1009.7
1009.37
1009.04
1008.69
1008.32
1007.94
1007.54
1007.12
1006.69
1006.23
1005.75
1005.25
1004.73
1004.19
1003.62
1003.03
1002.41
1001.77
1001.11
1000.42
999.708
998.974
998.217
997.44
996.643
995.83
995
994.157
993.304
992.442
991.576
990.707
989.84
988.977
988.122
987.278
986.448
985.635
984.842
984.071
983.326
982.606
981.914
981.253
980.62
980.019
979.449
978.91
978.402
977.924
977.476
977.057
976.667
976.303
975.966
975.653
975.365
975.099
974.854
974.631
974.426
974.239
974.069
973.916
973.778
973.654
973.543
973.445
973.36
973.285
973.22
973.165
973.119
973.082
973.053
973.032
973.017
973.008
973.006
973.009
973.017
973.03
973.047
973.068
973.094
973.122
973.154
973.189
973.226
973.267
973.309
973.355
973.402
973.452
973.504
973.558
973.614
973.672
973.732
973.794
973.858
973.923
973.99
974.059
974.129
974.2
974.273
974.346
974.42
974.495
974.569
974.643
974.716
974.789
974.859
974.927
974.993
975.056
975.115
975.17
975.221
975.267
975.307
975.341
975.37
975.392
975.408
975.417
975.421
975.418
975.409
975.396
975.379
975.358
975.334
975.31
975.285
975.263
975.244
975.23
975.224
975.227
975.241
975.268
975.309
975.367