# vtk DataFile Version 2.0
LBE mesh
ASCII
DATASET STRUCTURED_POINTS
DIMENSIONS 300 100 1
ASPECT_RATIO 1 1 1
ORIGIN 0 0 0
POINT_DATA 30000
SCALARS rho double 1
LOOKUP_TABLE default
1046.99
1015.31
1014.59
1021.05
1019.21
1015.3
1015.09
1015.6
1014.81
1014.01
1013.83
1013.66
1013.27
1012.95
1012.74
1012.52
1012.26
1012.02
1011.81
1011.58
1011.35
1011.13
1010.9
1010.67
1010.44
1010.2
1009.95
1009.7
1009.45
1009.18
1008.91
1008.63
1008.34
1008.04
1007.73
1007.4
1007.07
1006.72
1006.36
1005.99
1005.6
1005.19
1004.77
1004.34
1003.89
1003.42
1002.93
1002.43
1001.91
1001.37
1000.81
1000.24
999.649
999.04
998.415
997.773
997.116
996.444
995.758
995.06
994.349
993.629
992.9
992.163
991.421
990.675
989.927
989.179
988.432
987.689
986.951
986.22
985.499
984.787
984.088
983.403
982.733
982.079
981.442
980.825
980.226
979.648
979.091
978.555
978.04
977.548
977.077
976.627
976.2
975.794
975.409
975.044
974.701
974.377
974.072
973.786
973.518
973.268
973.034
972.817
972.615
972.429
972.256
972.098
971.952
971.819
971.698
971.587
971.488
971.398
971.319
971.248
971.186
971.132
971.086
971.048
971.016
970.991
970.972
970.959
970.951
970.948
970.95
970.957
970.968
970.983
971.001
971.023
971.048
971.076
971.107
971.14
971.176
971.213
971.253
971.294
971.337
971.382
971.428
971.474
971.522
971.57
971.62
971.67
971.72
971.771
971.822
971.874
971.926
971.979
972.031
972.084
972.138
972.192
972.247
972.303
972.36
972.418
972.478
972.54
972.604
972.671
972.742
972.815
972.893
972.976
973.064
973.159
973.259
973.367
973.483
973.607
973.74
973.882
974.034
974.197
974.37
974.554
974.749
974.956
975.173
975.402
975.641
975.89
976.15
976.419
976.697
976.984
977.279
977.58
977.888
978.2
978.517
978.837
979.16
979.484
979.808
980.131
980.453
980.773
981.089
981.401
981.708
982.01
982.305
982.592
982.873
983.145
983.408
983.662
983.907
984.142
984.366
984.581
984.785
984.978
985.161
985.332
985.492
985.642
985.78
985.906
986.022
986.126
986.218
986.299
986.369
986.426
986.472
986.505
986.526
986.534
986.53
986.512
986.481
986.436
986.377
986.304
986.216
986.114
985.996
985.863
985.714
985.55
985.371
985.175
984.965
984.739
984.499
984.244
983.975
983.692
983.398
983.091
982.773
982.445
982.109
981.766
981.417
981.063
980.706
980.348
979.991
979.635
979.283
978.937
978.598
978.268
977.949
977.641
977.346
977.066
976.802
976.555
976.323
976.109
975.913
975.732
975.566
975.417
975.28
975.149
975.026
974.914
974.792
974.646
974.511
974.378
974.132
973.817
973.649
973.323
972.408
971.821
972.011
970.069
966.31
968.27
968.964
945.853
1029.89
1026.34
1022.25
1017.05
1017.22
1017.38
1016.19
1015.02
1014.78
1014.52
1014.03
1013.62
1013.38
1013.11
1012.82
1012.56
1012.32
1012.09
1011.85
1011.62
1011.39
1011.16
1010.92
1010.69
1010.45
1010.21
1009.96
1009.71
1009.45
1009.18
1008.9
1008.62
1008.33
1008.02
1007.71
1007.38
1007.05
1006.7
1006.33
1005.96
1005.57
1005.16
1004.74
1004.3
1003.85
1003.38
1002.89
1002.39
1001.86
1001.33
1000.77
1000.19
999.602
998.993
998.368
997.726
997.069
996.398
995.712
995.015
994.306
993.587
992.859
992.124
991.384
990.641
989.895
989.149
988.405
987.665
986.93
986.203
985.484
984.776
984.08
983.398
982.731
982.08
981.447
980.833
980.237
979.662
979.107
978.574
978.062
977.572
977.103
976.656
976.23
975.826
975.442
975.079
974.737
974.414
974.11
973.825
973.558
973.308
973.075
972.859
972.658
972.471
972.299
972.141
971.995
971.862
971.741
971.631
971.531
971.442
971.362
971.292
971.23
971.176
971.13
971.092
971.06
971.035
971.016
971.003
970.995
970.992
970.995
971.002
971.012
971.027
971.046
971.068
971.093
971.121
971.152
971.185
971.221
971.258
971.298
971.339
971.382
971.427
971.472
971.518
971.566
971.614
971.663
971.713
971.763
971.813
971.864
971.915
971.967
972.019
972.071
972.124
972.177
972.23
972.285
972.34
972.397
972.454
972.514
972.575
972.639
972.705
972.775
972.848
972.926
973.008
973.095
973.189
973.288
973.396
973.51
973.633
973.765
973.906
974.057
974.218
974.39
974.572
974.765
974.97
975.186
975.412
975.649
975.897
976.155
976.422
976.699
976.984
977.277
977.576
977.882
978.193
978.508
978.827
979.148
979.47
979.793
980.116
980.436
980.755
981.07
981.382
981.688
981.989
982.283
982.57
982.85
983.122
983.385
983.639
983.884
984.119
984.343
984.558
984.762
984.955
985.138
985.309
985.47
985.619
985.757
985.884
985.999
986.104
986.197
986.278
986.348
986.406
986.452
986.485
986.507
986.516
986.512
986.495
986.465
986.421
986.364
986.291
986.205
986.104
985.988
985.856
985.709
985.547
985.369
985.176
984.967
984.744
984.505
984.252
983.985
983.705
983.411
983.106
982.791
982.465
982.13
981.787
981.439
981.087
980.73
980.373
980.016
979.66
979.308
978.961
978.621
978.289
977.968
977.658
977.361
977.079
976.811
976.559
976.324
976.106
975.903
975.718
975.547
975.389
975.243
975.108
974.978
974.846
974.717
974.582
974.414
974.221
974.035
973.767
973.352
972.966
972.609
971.712
970.506
970.011
968.853
964.739
960.915
958.81
1021.79
1026.6
1021.92
1017.62
1017.86
1017.57
1016.18
1015.22
1015.02
1014.66
1014.13
1013.74
1013.48
1013.2
1012.89
1012.63
1012.39
1012.14
1011.9
1011.66
1011.43
1011.19
1010.95
1010.72
1010.48
1010.23
1009.98
1009.72
1009.46
1009.19
1008.91
1008.63
1008.33
1008.02
1007.71
1007.38
1007.04
1006.69
1006.32
1005.94
1005.55
1005.14
1004.72
1004.28
1003.83
1003.36
1002.87
1002.36
1001.84
1001.3
1000.74
1000.16
999.569
998.959
998.333
997.69
997.032
996.359
995.673
994.975
994.265
993.546
992.818
992.083
991.343
990.6
989.855
989.11
988.367
987.627
986.894
986.168
985.451
984.744
984.051
983.371
982.706
982.058
981.427
980.815
980.223
979.65
979.098
978.568
978.058
977.571
977.105
976.66
976.237
975.835
975.454
975.093
974.753
974.432
974.13
973.846
973.581
973.332
973.101
972.886
972.686
972.5
972.329
972.172
972.027
971.894
971.774
971.664
971.565
971.477
971.397
971.327
971.266
971.213
971.167
971.129
971.098
971.073
971.054
971.042
971.034
971.032
971.034
971.042
971.053
971.068
971.087
971.109
971.135
971.163
971.194
971.228
971.263
971.301
971.341
971.382
971.425
971.47
971.515
971.561
971.609
971.657
971.706
971.755
971.805
971.855
971.906
971.957
972.008
972.059
972.111
972.163
972.216
972.269
972.322
972.377
972.433
972.49
972.549
972.609
972.672
972.737
972.806
972.878
972.954
973.035
973.121
973.213
973.312
973.417
973.53
973.652
973.782
973.921
974.07
974.229
974.399
974.579
974.771
974.974
975.188
975.413
975.648
975.895
976.151
976.417
976.692
976.976
977.268
977.566
977.871
978.181
978.496
978.814
979.134
979.456
979.778
980.1
980.42
980.739
981.054
981.365
981.671
981.972
982.267
982.554
982.834
983.106
983.369
983.623
983.868
984.103
984.328
984.542
984.746
984.94
985.122
985.294
985.455
985.604
985.743
985.869
985.985
986.09
986.183
986.265
986.335
986.393
986.439
986.474
986.496
986.506
986.503
986.488
986.459
986.416
986.36
986.289
986.204
986.105
985.99
985.86
985.715
985.555
985.379
985.187
984.981
984.758
984.522
984.27
984.005
983.725
983.433
983.129
982.814
982.489
982.154
981.812
981.464
981.11
980.753
980.394
980.036
979.679
979.324
978.975
978.633
978.299
977.974
977.661
977.361
977.074
976.803
976.547
976.308
976.085
975.878
975.688
975.513
975.35
975.198
975.058
974.926
974.786
974.645
974.515
974.352
974.123
973.922
973.732
973.286
972.716
972.537
971.992
970.147
969.364
970.172
965.876
960.23
963.983
1021.51
1020.24
1019.71
1020.88
1018.37
1016.27
1016.22
1016.14
1015.22
1014.51
1014.28
1014.01
1013.59
1013.25
1013
1012.74
1012.46
1012.21
1011.97
1011.73
1011.48
1011.24
1011.01
1010.76
1010.52
1010.27
1010.01
1009.76
1009.49
1009.22
1008.94
1008.65
1008.35
1008.04
1007.73
1007.4
1007.05
1006.7
1006.33
1005.95
1005.56
1005.15
1004.72
1004.28
1003.83
1003.35
1002.86
1002.35
1001.83
1001.28
1000.72
1000.14
999.549
998.936
998.307
997.661
997
996.325
995.636
994.935
994.223
993.501
992.77
992.033
991.291
990.545
989.798
989.052
988.307
987.567
986.833
986.107
985.39
984.684
983.991
983.312
982.649
982.003
981.374
980.765
980.175
979.605
979.056
978.529
978.023
977.538
977.076
976.634
976.215
975.816
975.438
975.081
974.743
974.426
974.126
973.846
973.583
973.337
973.107
972.894
972.696
972.513
972.344
972.188
972.044
971.913
971.794
971.685
971.588
971.5
971.422
971.352
971.292
971.239
971.194
971.157
971.126
971.102
971.084
971.071
971.065
971.063
971.066
971.074
971.085
971.101
971.121
971.144
971.169
971.198
971.23
971.264
971.3
971.338
971.378
971.42
971.463
971.508
971.554
971.6
971.648
971.696
971.745
971.794
971.844
971.894
971.945
971.995
972.046
972.097
972.149
972.2
972.252
972.304
972.358
972.412
972.467
972.523
972.58
972.64
972.701
972.765
972.832
972.903
972.978
973.057
973.141
973.231
973.328
973.431
973.542
973.662
973.789
973.927
974.074
974.231
974.399
974.577
974.767
974.969
975.181
975.404
975.638
975.883
976.139
976.404
976.678
976.961
977.252
977.551
977.855
978.165
978.48
978.798
979.118
979.44
979.763
980.085
980.406
980.725
981.041
981.352
981.659
981.96
982.255
982.543
982.823
983.096
983.359
983.614
983.859
984.094
984.319
984.534
984.738
984.932
985.115
985.286
985.447
985.597
985.735
985.862
985.979
986.083
986.177
986.258
986.329
986.388
986.435
986.47
986.494
986.504
986.503
986.488
986.461
986.42
986.365
986.296
986.213
986.115
986.002
985.874
985.731
985.572
985.398
985.208
985.003
984.782
984.547
984.296
984.031
983.752
983.461
983.157
982.841
982.515
982.18
981.837
981.487
981.131
980.772
980.411
980.049
979.689
979.332
978.979
978.633
978.295
977.967
977.65
977.345
977.055
976.779
976.52
976.276
976.049
975.839
975.644
975.465
975.301
975.148
975.002
974.865
974.735
974.592
974.433
974.289
974.12
973.843
973.56
973.362
972.901
972.102
971.733
971.378
969.512
967.822
967.786
966.643
964.481
1021.5
1019.32
1019.25
1019.14
1017.66
1017.24
1016.67
1015.82
1015.2
1014.9
1014.52
1014.06
1013.7
1013.42
1013.13
1012.84
1012.57
1012.32
1012.06
1011.81
1011.57
1011.32
1011.08
1010.83
1010.58
1010.33
1010.07
1009.81
1009.55
1009.27
1008.99
1008.7
1008.4
1008.09
1007.77
1007.44
1007.09
1006.74
1006.37
1005.98
1005.59
1005.17
1004.75
1004.3
1003.84
1003.37
1002.87
1002.36
1001.83
1001.29
1000.72
1000.14
999.538
998.921
998.287
997.637
996.971
996.291
995.597
994.89
994.173
993.445
992.71
991.968
991.221
990.47
989.719
988.969
988.221
987.478
986.741
986.012
985.294
984.587
983.894
983.215
982.553
981.908
981.281
980.674
980.087
979.52
978.975
978.451
977.949
977.469
977.01
976.574
976.158
975.765
975.391
975.038
974.705
974.392
974.097
973.82
973.561
973.319
973.093
972.883
972.688
972.507
972.34
972.187
972.045
971.916
971.798
971.692
971.596
971.509
971.432
971.364
971.305
971.253
971.209
971.172
971.142
971.118
971.101
971.089
971.083
971.082
971.086
971.094
971.106
971.122
971.142
971.166
971.193
971.222
971.254
971.289
971.325
971.364
971.405
971.448
971.492
971.536
971.583
971.63
971.678
971.727
971.776
971.826
971.876
971.926
971.977
972.027
972.078
972.129
972.18
972.231
972.283
972.335
972.388
972.441
972.495
972.55
972.606
972.664
972.724
972.787
972.852
972.921
972.994
973.072
973.154
973.242
973.336
973.438
973.547
973.663
973.789
973.924
974.069
974.224
974.39
974.567
974.755
974.955
975.166
975.388
975.621
975.866
976.12
976.385
976.659
976.943
977.234
977.532
977.837
978.148
978.463
978.782
979.103
979.426
979.749
980.073
980.394
980.714
981.031
981.343
981.651
981.953
982.249
982.538
982.819
983.091
983.355
983.611
983.856
984.092
984.317
984.532
984.737
984.93
985.114
985.285
985.446
985.596
985.735
985.862
985.978
986.083
986.177
986.259
986.33
986.389
986.437
986.474
986.498
986.51
986.51
986.497
986.471
986.431
986.378
986.311
986.23
986.134
986.023
985.897
985.755
985.598
985.426
985.237
985.033
984.814
984.578
984.328
984.064
983.785
983.492
983.188
982.871
982.543
982.206
981.86
981.508
981.149
980.786
980.421
980.056
979.692
979.33
978.973
978.622
978.28
977.947
977.625
977.317
977.022
976.742
976.478
976.231
976.001
975.789
975.592
975.411
975.244
975.092
974.948
974.806
974.676
974.549
974.393
974.222
974.081
973.875
973.523
973.253
973.057
972.355
971.491
971.436
970.646
968.38
967.94
967.73
965.525
1019.41
1019.43
1019.01
1017.54
1017.67
1017.52
1016.34
1015.71
1015.54
1015.12
1014.53
1014.17
1013.91
1013.59
1013.24
1012.96
1012.71
1012.44
1012.18
1011.93
1011.68
1011.43
1011.18
1010.93
1010.68
1010.42
1010.16
1009.9
1009.63
1009.35
1009.07
1008.77
1008.47
1008.16
1007.84
1007.5
1007.16
1006.8
1006.43
1006.04
1005.64
1005.23
1004.79
1004.35
1003.88
1003.4
1002.9
1002.39
1001.86
1001.3
1000.73
1000.14
999.538
998.914
998.273
997.616
996.943
996.255
995.553
994.839
994.113
993.378
992.634
991.884
991.13
990.372
989.614
988.857
988.103
987.355
986.613
985.881
985.159
984.45
983.755
983.075
982.413
981.769
981.144
980.539
979.954
979.391
978.85
978.331
977.834
977.359
976.906
976.475
976.066
975.677
975.31
974.963
974.636
974.328
974.038
973.767
973.513
973.275
973.054
972.848
972.657
972.48
972.317
972.166
972.028
971.901
971.786
971.681
971.587
971.502
971.427
971.36
971.301
971.251
971.208
971.172
971.142
971.119
971.102
971.091
971.085
971.085
971.089
971.097
971.11
971.127
971.147
971.172
971.199
971.229
971.261
971.297
971.335
971.374
971.416
971.459
971.504
971.55
971.597
971.645
971.694
971.743
971.794
971.844
971.895
971.946
971.997
972.048
972.099
972.151
972.202
972.253
972.305
972.357
972.409
972.462
972.515
972.569
972.625
972.681
972.74
972.801
972.865
972.932
973.004
973.079
973.159
973.245
973.337
973.436
973.543
973.658
973.781
973.914
974.057
974.211
974.375
974.55
974.737
974.936
975.146
975.367
975.6
975.844
976.099
976.364
976.638
976.922
977.214
977.513
977.819
978.131
978.447
978.767
979.089
979.414
979.739
980.063
980.387
980.708
981.025
981.339
981.648
981.951
982.248
982.538
982.82
983.093
983.358
983.613
983.86
984.096
984.322
984.537
984.742
984.935
985.119
985.291
985.452
985.602
985.74
985.868
985.984
986.089
986.183
986.266
986.338
986.398
986.446
986.483
986.508
986.522
986.523
986.511
986.487
986.449
986.398
986.333
986.254
986.159
986.05
985.926
985.786
985.631
985.46
985.272
985.069
984.85
984.615
984.365
984.1
983.82
983.527
983.22
982.901
982.571
982.23
981.881
981.525
981.162
980.795
980.426
980.055
979.686
979.319
978.956
978.601
978.253
977.915
977.589
977.276
976.977
976.693
976.426
976.177
975.945
975.729
975.532
975.352
975.184
975.031
974.892
974.759
974.621
974.494
974.376
974.211
974.01
973.868
973.665
973.231
972.885
972.737
972.012
970.959
970.722
970.199
968.702
967.593
967.105
1018.36
1018.75
1018.27
1017.63
1017.44
1016.7
1016.33
1016.08
1015.51
1014.99
1014.7
1014.41
1014.02
1013.67
1013.4
1013.14
1012.85
1012.57
1012.32
1012.07
1011.81
1011.56
1011.31
1011.05
1010.8
1010.54
1010.28
1010.01
1009.74
1009.46
1009.17
1008.88
1008.57
1008.26
1007.93
1007.6
1007.25
1006.89
1006.51
1006.12
1005.72
1005.3
1004.87
1004.41
1003.95
1003.46
1002.96
1002.44
1001.89
1001.34
1000.76
1000.16
999.548
998.915
998.265
997.598
996.915
996.217
995.505
994.779
994.043
993.297
992.543
991.782
991.017
990.25
989.482
988.716
987.954
987.198
986.45
985.711
984.985
984.272
983.574
982.893
982.23
981.585
980.961
980.359
979.777
979.218
978.681
978.167
977.676
977.207
976.761
976.337
975.935
975.554
975.194
974.854
974.534
974.233
973.95
973.685
973.438
973.206
972.99
972.79
972.604
972.431
972.272
972.126
971.991
971.867
971.755
971.653
971.561
971.478
971.404
971.338
971.281
971.231
971.189
971.153
971.124
971.102
971.085
971.074
971.068
971.068
971.072
971.081
971.094
971.11
971.131
971.156
971.183
971.214
971.247
971.283
971.322
971.362
971.405
971.449
971.495
971.542
971.591
971.64
971.69
971.741
971.793
971.844
971.897
971.949
972.001
972.054
972.106
972.158
972.211
972.262
972.314
972.366
972.419
972.471
972.524
972.578
972.633
972.689
972.747
972.807
972.87
972.935
973.005
973.079
973.157
973.242
973.332
973.429
973.534
973.647
973.769
973.9
974.041
974.194
974.357
974.531
974.717
974.915
975.124
975.346
975.579
975.823
976.078
976.344
976.619
976.904
977.197
977.497
977.804
978.117
978.435
978.756
979.081
979.407
979.733
980.059
980.384
980.706
981.025
981.34
981.65
981.955
982.253
982.543
982.826
983.101
983.366
983.622
983.869
984.106
984.332
984.548
984.753
984.947
985.13
985.302
985.463
985.613
985.752
985.879
985.996
986.101
986.196
986.279
986.351
986.411
986.461
986.499
986.525
986.539
986.541
986.532
986.509
986.473
986.424
986.36
986.283
986.191
986.083
985.961
985.823
985.669
985.499
985.313
985.11
984.891
984.656
984.405
984.139
983.858
983.562
983.253
982.931
982.597
982.253
981.899
981.538
981.171
980.798
980.423
980.048
979.672
979.3
978.932
978.57
978.217
977.875
977.544
977.226
976.923
976.637
976.367
976.115
975.882
975.666
975.468
975.289
975.126
974.975
974.836
974.712
974.59
974.456
974.337
974.223
974.04
973.83
973.696
973.447
972.956
972.662
972.444
971.576
970.791
970.491
969.562
968.537
967.943
1018.09
1017.78
1017.55
1017.68
1017.04
1016.46
1016.36
1015.93
1015.42
1015.12
1014.84
1014.45
1014.1
1013.84
1013.56
1013.26
1012.98
1012.73
1012.47
1012.21
1011.96
1011.71
1011.45
1011.2
1010.94
1010.68
1010.42
1010.15
1009.88
1009.59
1009.3
1009.01
1008.7
1008.38
1008.06
1007.72
1007.37
1007
1006.62
1006.23
1005.82
1005.4
1004.96
1004.51
1004.03
1003.54
1003.03
1002.5
1001.95
1001.38
1000.8
1000.19
999.568
998.924
998.263
997.584
996.889
996.177
995.452
994.713
993.964
993.204
992.436
991.662
990.883
990.103
989.323
988.546
987.773
987.008
986.251
985.505
984.771
984.053
983.351
982.668
982.003
981.358
980.736
980.135
979.557
979.002
978.47
977.962
977.477
977.016
976.577
976.161
975.767
975.395
975.043
974.712
974.4
974.108
973.833
973.576
973.336
973.111
972.903
972.708
972.528
972.361
972.207
972.065
971.934
971.814
971.705
971.606
971.516
971.435
971.363
971.299
971.243
971.193
971.152
971.116
971.088
971.065
971.048
971.036
971.03
971.029
971.033
971.042
971.054
971.07
971.091
971.115
971.143
971.173
971.207
971.244
971.282
971.324
971.367
971.413
971.46
971.508
971.558
971.609
971.661
971.714
971.768
971.822
971.876
971.93
971.985
972.039
972.093
972.147
972.201
972.254
972.308
972.361
972.414
972.467
972.521
972.575
972.63
972.686
972.744
972.804
972.866
972.931
973
973.072
973.15
973.233
973.322
973.418
973.522
973.633
973.754
973.884
974.025
974.176
974.339
974.513
974.698
974.896
975.106
975.327
975.561
975.806
976.062
976.328
976.605
976.891
977.185
977.487
977.796
978.111
978.43
978.753
979.079
979.406
979.734
980.062
980.388
980.712
981.032
981.349
981.66
981.965
982.264
982.555
982.839
983.114
983.38
983.637
983.884
984.122
984.348
984.564
984.769
984.963
985.146
985.319
985.48
985.63
985.769
985.896
986.013
986.118
986.213
986.297
986.369
986.43
986.48
986.519
986.546
986.561
986.565
986.556
986.535
986.501
986.453
986.392
986.316
986.226
986.121
986
985.863
985.71
985.541
985.356
985.153
984.934
984.699
984.447
984.179
983.895
983.597
983.285
982.959
982.621
982.272
981.914
981.547
981.174
980.796
980.415
980.033
979.652
979.274
978.9
978.533
978.175
977.827
977.492
977.171
976.864
976.576
976.304
976.051
975.816
975.602
975.406
975.228
975.068
974.926
974.791
974.667
974.562
974.452
974.319
974.207
974.108
973.908
973.67
973.552
973.297
972.749
972.423
972.196
971.447
970.635
970.206
969.611
968.507
1017.62
1017.42
1017.29
1017.1
1016.71
1016.57
1016.16
1015.71
1015.5
1015.21
1014.81
1014.49
1014.25
1013.96
1013.65
1013.39
1013.14
1012.88
1012.61
1012.36
1012.11
1011.86
1011.61
1011.35
1011.1
1010.84
1010.57
1010.31
1010.03
1009.75
1009.46
1009.16
1008.85
1008.53
1008.2
1007.86
1007.51
1007.14
1006.76
1006.36
1005.95
1005.52
1005.08
1004.62
1004.14
1003.64
1003.12
1002.58
1002.03
1001.45
1000.85
1000.23
999.597
998.941
998.266
997.573
996.863
996.137
995.396
994.641
993.874
993.098
992.314
991.523
990.729
989.934
989.14
988.348
987.562
986.784
986.017
985.262
984.52
983.795
983.089
982.402
981.735
981.09
980.468
979.87
979.295
978.745
978.219
977.717
977.24
976.787
976.357
975.95
975.565
975.203
974.861
974.54
974.238
973.954
973.689
973.441
973.209
972.993
972.792
972.605
972.431
972.271
972.122
971.985
971.859
971.743
971.638
971.541
971.454
971.375
971.305
971.242
971.186
971.138
971.096
971.061
971.032
971.008
970.991
970.978
970.971
970.969
970.972
970.979
970.99
971.005
971.025
971.048
971.075
971.105
971.139
971.175
971.214
971.256
971.3
971.346
971.395
971.445
971.496
971.549
971.604
971.659
971.715
971.771
971.828
971.885
971.943
972
972.057
972.113
972.169
972.226
972.281
972.337
972.393
972.448
972.503
972.559
972.615
972.673
972.731
972.792
972.854
972.92
972.988
973.061
973.139
973.221
973.31
973.406
973.509
973.62
973.741
973.871
974.012
974.163
974.326
974.5
974.686
974.884
975.095
975.317
975.551
975.797
976.054
976.322
976.6
976.888
977.184
977.487
977.798
978.114
978.435
978.759
979.086
979.415
979.745
980.074
980.401
980.726
981.047
981.365
981.677
981.983
982.282
982.574
982.858
983.134
983.401
983.658
983.905
984.142
984.369
984.585
984.79
984.984
985.168
985.34
985.501
985.651
985.789
985.917
986.034
986.139
986.234
986.318
986.39
986.452
986.503
986.542
986.571
986.587
986.592
986.584
986.565
986.532
986.486
986.426
986.352
986.264
986.16
986.04
985.905
985.753
985.585
985.4
985.197
984.978
984.741
984.488
984.218
983.932
983.631
983.315
982.985
982.643
982.289
981.925
981.553
981.174
980.79
980.403
980.014
979.627
979.243
978.863
978.491
978.128
977.776
977.437
977.113
976.804
976.512
976.24
975.987
975.753
975.54
975.348
975.174
975.017
974.88
974.759
974.643
974.537
974.451
974.353
974.225
974.126
974.032
973.819
973.588
973.467
973.163
972.67
972.357
971.976
971.306
970.729
970.143
969.258
1017.09
1017.13
1017.03
1016.68
1016.57
1016.39
1015.97
1015.73
1015.48
1015.13
1014.85
1014.6
1014.32
1014.02
1013.77
1013.52
1013.26
1013
1012.76
1012.52
1012.27
1012.02
1011.77
1011.52
1011.26
1011
1010.74
1010.47
1010.2
1009.92
1009.63
1009.33
1009.02
1008.7
1008.37
1008.02
1007.67
1007.3
1006.91
1006.51
1006.1
1005.67
1005.22
1004.75
1004.26
1003.75
1003.23
1002.68
1002.11
1001.53
1000.92
1000.29
999.637
998.966
998.276
997.566
996.839
996.095
995.336
994.562
993.777
992.982
992.178
991.369
990.556
989.743
988.931
988.123
987.322
986.53
985.75
984.984
984.233
983.5
982.788
982.096
981.427
980.782
980.16
979.564
978.994
978.448
977.929
977.435
976.966
976.522
976.102
975.706
975.332
974.98
974.649
974.339
974.048
973.775
973.52
973.282
973.06
972.853
972.661
972.482
972.316
972.162
972.02
971.889
971.767
971.656
971.555
971.461
971.377
971.3
971.231
971.17
971.115
971.066
971.024
970.988
970.959
970.934
970.915
970.901
970.892
970.888
970.888
970.893
970.902
970.915
970.933
970.955
970.98
971.009
971.041
971.077
971.115
971.157
971.201
971.248
971.297
971.348
971.401
971.456
971.513
971.571
971.63
971.689
971.749
971.81
971.871
971.932
971.993
972.053
972.114
972.174
972.234
972.293
972.352
972.411
972.469
972.528
972.587
972.647
972.708
972.771
972.835
972.902
972.973
973.047
973.125
973.209
973.299
973.396
973.5
973.612
973.734
973.865
974.006
974.158
974.322
974.497
974.684
974.884
975.095
975.319
975.555
975.802
976.061
976.33
976.61
976.898
977.196
977.501
977.812
978.13
978.452
978.778
979.106
979.436
979.766
980.096
980.424
980.75
981.072
981.389
981.702
982.008
982.307
982.6
982.884
983.159
983.426
983.683
983.93
984.167
984.394
984.609
984.815
985.009
985.192
985.364
985.524
985.674
985.813
985.941
986.057
986.163
986.258
986.341
986.415
986.477
986.528
986.568
986.597
986.614
986.62
986.614
986.595
986.564
986.519
986.461
986.389
986.302
986.199
986.081
985.947
985.796
985.628
985.443
985.24
985.02
984.783
984.527
984.255
983.966
983.662
983.342
983.008
982.661
982.302
981.933
981.555
981.169
980.78
980.386
979.992
979.599
979.209
978.824
978.447
978.08
977.724
977.382
977.055
976.744
976.452
976.179
975.927
975.696
975.485
975.296
975.129
974.98
974.847
974.735
974.639
974.542
974.455
974.392
974.309
974.184
974.101
974.02
973.795
973.567
973.444
973.142
972.672
972.339
971.962
971.35
970.74
970.021
1016.8
1016.79
1016.68
1016.54
1016.39
1016.09
1015.91
1015.71
1015.38
1015.12
1014.91
1014.63
1014.35
1014.12
1013.88
1013.62
1013.37
1013.14
1012.9
1012.65
1012.41
1012.17
1011.93
1011.68
1011.43
1011.17
1010.91
1010.65
1010.37
1010.09
1009.8
1009.51
1009.2
1008.88
1008.55
1008.2
1007.84
1007.47
1007.08
1006.68
1006.26
1005.83
1005.37
1004.9
1004.4
1003.89
1003.35
1002.8
1002.22
1001.62
1000.99
1000.35
999.685
998.998
998.291
997.563
996.817
996.053
995.273
994.479
993.672
992.854
992.029
991.198
990.364
989.529
988.698
987.872
987.053
986.245
985.45
984.671
983.91
983.169
982.449
981.753
981.081
980.434
979.814
979.221
978.654
978.115
977.603
977.118
976.658
976.225
975.816
975.431
975.069
974.73
974.411
974.114
973.835
973.573
973.33
973.103
972.892
972.695
972.512
972.342
972.185
972.038
971.903
971.777
971.662
971.555
971.458
971.369
971.287
971.212
971.145
971.084
971.029
970.981
970.938
970.901
970.87
970.844
970.823
970.806
970.794
970.787
970.785
970.786
970.793
970.803
970.817
970.836
970.859
970.885
970.915
970.949
970.986
971.027
971.07
971.117
971.166
971.218
971.272
971.329
971.388
971.448
971.51
971.573
971.637
971.702
971.768
971.834
971.9
971.966
972.031
972.097
972.162
972.226
972.291
972.354
972.418
972.482
972.545
972.61
972.675
972.741
972.81
972.88
972.954
973.031
973.113
973.2
973.292
973.391
973.498
973.612
973.736
973.869
974.012
974.167
974.332
974.509
974.698
974.899
975.113
975.338
975.576
975.825
976.085
976.356
976.636
976.927
977.225
977.532
977.844
978.162
978.485
978.811
979.14
979.47
979.801
980.131
980.459
980.784
981.106
981.423
981.735
982.041
982.34
982.632
982.915
983.19
983.456
983.713
983.959
984.195
984.421
984.636
984.841
985.035
985.217
985.389
985.549
985.699
985.837
985.965
986.081
986.187
986.281
986.365
986.439
986.501
986.553
986.593
986.623
986.641
986.648
986.642
986.625
986.595
986.552
986.495
986.424
986.338
986.236
986.12
985.986
985.836
985.669
985.483
985.28
985.059
984.82
984.563
984.289
983.997
983.689
983.366
983.027
982.675
982.311
981.937
981.553
981.162
980.766
980.368
979.968
979.569
979.174
978.785
978.404
978.033
977.674
977.329
977
976.689
976.397
976.125
975.875
975.646
975.441
975.256
975.095
974.955
974.835
974.728
974.644
974.575
974.501
974.436
974.397
974.328
974.218
974.151
974.069
973.861
973.659
973.497
973.193
972.811
972.44
971.99
971.491
970.75
1016.57
1016.51
1016.42
1016.37
1016.18
1015.98
1015.84
1015.58
1015.35
1015.15
1014.9
1014.65
1014.43
1014.2
1013.95
1013.72
1013.49
1013.26
1013.02
1012.79
1012.56
1012.33
1012.08
1011.84
1011.6
1011.35
1011.09
1010.83
1010.55
1010.28
1009.99
1009.69
1009.38
1009.07
1008.73
1008.39
1008.03
1007.66
1007.27
1006.86
1006.44
1006
1005.54
1005.06
1004.56
1004.03
1003.49
1002.92
1002.33
1001.72
1001.08
1000.43
999.743
999.038
998.311
997.564
996.796
996.01
995.207
994.389
993.558
992.716
991.866
991.01
990.153
989.295
988.441
987.593
986.755
985.928
985.118
984.324
983.551
982.8
982.073
981.371
980.696
980.049
979.43
978.84
978.279
977.747
977.243
976.767
976.319
975.896
975.5
975.128
974.78
974.454
974.149
973.865
973.599
973.352
973.121
972.906
972.706
972.521
972.348
972.188
972.039
971.901
971.773
971.654
971.545
971.444
971.35
971.264
971.186
971.113
971.047
970.987
970.933
970.884
970.841
970.802
970.768
970.74
970.716
970.696
970.681
970.67
970.664
970.661
970.664
970.67
970.68
970.695
970.713
970.737
970.763
970.794
970.829
970.867
970.909
970.954
971.003
971.055
971.11
971.168
971.229
971.292
971.356
971.423
971.492
971.561
971.632
971.704
971.776
971.848
971.92
971.992
972.064
972.136
972.207
972.278
972.349
972.419
972.49
972.561
972.632
972.705
972.779
972.856
972.935
973.017
973.104
973.195
973.292
973.395
973.506
973.624
973.751
973.888
974.035
974.192
974.36
974.54
974.732
974.936
975.151
975.379
975.618
975.869
976.131
976.403
976.685
976.976
977.275
977.582
977.895
978.214
978.537
978.863
979.191
979.521
979.851
980.18
980.507
980.831
981.152
981.467
981.778
982.082
982.38
982.67
982.953
983.226
983.491
983.746
983.991
984.226
984.451
984.665
984.868
985.061
985.242
985.413
985.573
985.722
985.86
985.987
986.103
986.208
986.303
986.387
986.461
986.523
986.576
986.616
986.646
986.665
986.672
986.668
986.652
986.622
986.58
986.524
986.454
986.37
986.269
986.153
986.021
985.871
985.704
985.518
985.315
985.093
984.853
984.594
984.317
984.023
983.712
983.385
983.042
982.686
982.317
981.937
981.549
981.153
980.752
980.348
979.944
979.54
979.141
978.748
978.363
977.989
977.628
977.282
976.952
976.641
976.35
976.081
975.833
975.608
975.408
975.232
975.077
974.946
974.839
974.749
974.672
974.619
974.58
974.529
974.491
974.478
974.426
974.335
974.288
974.212
974.023
973.841
973.671
973.382
973.014
972.643
972.228
971.522
1016.34
1016.32
1016.26
1016.15
1016.02
1015.91
1015.71
1015.5
1015.34
1015.13
1014.89
1014.69
1014.48
1014.25
1014.03
1013.82
1013.6
1013.37
1013.15
1012.93
1012.7
1012.47
1012.24
1012
1011.76
1011.52
1011.26
1011.01
1010.74
1010.46
1010.18
1009.88
1009.58
1009.26
1008.93
1008.59
1008.23
1007.85
1007.46
1007.06
1006.63
1006.18
1005.72
1005.23
1004.72
1004.19
1003.64
1003.06
1002.46
1001.83
1001.18
1000.51
999.808
999.084
998.337
997.567
996.777
995.966
995.138
994.294
993.435
992.567
991.689
990.806
989.922
989.038
988.159
987.287
986.427
985.58
984.751
983.942
983.155
982.393
981.658
980.95
980.273
979.625
979.008
978.422
977.867
977.342
976.849
976.383
975.947
975.538
975.156
974.798
974.465
974.154
973.865
973.595
973.344
973.111
972.894
972.693
972.506
972.332
972.171
972.021
971.882
971.753
971.633
971.521
971.418
971.322
971.234
971.152
971.076
971.006
970.941
970.882
970.827
970.778
970.733
970.693
970.657
970.625
970.598
970.574
970.555
970.539
970.528
970.521
970.518
970.519
970.524
970.534
970.547
970.565
970.588
970.615
970.645
970.68
970.719
970.763
970.81
970.861
970.916
970.974
971.036
971.101
971.169
971.239
971.312
971.387
971.463
971.541
971.62
971.699
971.779
971.86
971.94
972.02
972.101
972.181
972.26
972.34
972.419
972.5
972.58
972.661
972.744
972.828
972.915
973.005
973.099
973.197
973.301
973.41
973.526
973.651
973.783
973.925
974.077
974.238
974.411
974.594
974.789
974.996