# vtk DataFile Version 2.0
LBE mesh
ASCII
DATASET STRUCTURED_POINTS
DIMENSIONS 300 100 1
ASPECT_RATIO 1 1 1
ORIGIN 0 0 0
POINT_DATA 30000
SCALARS rho double 1
LOOKUP_TABLE default
1047.85
1016.27
1015.55
1021.97
1020.12
1016.21
1016
1016.49
1015.7
1014.88
1014.69
1014.51
1014.11
1013.78
1013.56
1013.32
1013.05
1012.81
1012.58
1012.34
1012.1
1011.86
1011.63
1011.38
1011.13
1010.88
1010.62
1010.36
1010.08
1009.8
1009.51
1009.21
1008.9
1008.58
1008.25
1007.91
1007.55
1007.18
1006.8
1006.4
1005.99
1005.56
1005.12
1004.66
1004.18
1003.69
1003.18
1002.65
1002.11
1001.54
1000.96
1000.36
999.747
999.113
998.463
997.797
997.115
996.418
995.708
994.984
994.25
993.506
992.753
991.993
991.228
990.46
989.69
988.921
988.154
987.391
986.634
985.886
985.147
984.421
983.708
983.011
982.33
981.669
981.026
980.405
979.806
979.229
978.677
978.148
977.644
977.164
976.711
976.282
975.879
975.5
975.148
974.819
974.515
974.234
973.978
973.744
973.532
973.343
973.175
973.028
972.9
972.792
972.704
972.633
972.58
972.545
972.525
972.521
972.533
972.559
972.599
972.653
972.72
972.798
972.889
972.991
973.103
973.225
973.357
973.497
973.646
973.803
973.967
974.138
974.315
974.497
974.685
974.876
975.072
975.271
975.472
975.676
975.881
976.086
976.293
976.499
976.704
976.908
977.11
977.309
977.506
977.699
977.888
978.072
978.252
978.427
978.596
978.759
978.915
979.065
979.208
979.344
979.472
979.592
979.705
979.81
979.906
979.995
980.075
980.147
980.21
980.265
980.312
980.349
980.378
980.398
980.409
980.411
980.403
980.385
980.357
980.318
980.269
980.208
980.136
980.052
979.957
979.85
979.731
979.601
979.461
979.31
979.151
978.984
978.811
978.633
978.453
978.272
978.092
977.917
977.747
977.587
977.438
977.304
977.186
977.087
977.009
976.955
976.927
976.925
976.951
977.007
977.092
977.207
977.352
977.526
977.729
977.959
978.215
978.495
978.798
979.121
979.461
979.818
980.187
980.568
980.957
981.351
981.751
982.151
982.551
982.949
983.343
983.732
984.115
984.489
984.854
985.209
985.554
985.888
986.211
986.523
986.824
987.113
987.391
987.659
987.916
988.165
988.404
988.636
988.859
989.077
989.287
989.493
989.694
989.891
990.085
990.276
990.465
990.651
990.837
991.02
991.202
991.383
991.562
991.739
991.914
992.086
992.256
992.422
992.584
992.741
992.892
993.038
993.177
993.307
993.43
993.543
993.646
993.739
993.819
993.888
993.943
993.985
994.011
994.023
994.02
993.999
993.96
993.903
993.828
993.728
993.605
993.467
993.297
993.078
992.847
992.609
992.249
991.797
991.493
991.054
989.995
989.247
989.379
987.328
983.25
985.262
986.077
961.312
1030.8
1027.27
1023.18
1017.98
1018.14
1018.29
1017.09
1015.92
1015.66
1015.39
1014.89
1014.47
1014.22
1013.94
1013.63
1013.36
1013.12
1012.87
1012.62
1012.38
1012.14
1011.89
1011.65
1011.4
1011.15
1010.89
1010.63
1010.36
1010.08
1009.8
1009.51
1009.21
1008.89
1008.57
1008.24
1007.89
1007.53
1007.16
1006.77
1006.37
1005.96
1005.53
1005.09
1004.62
1004.15
1003.65
1003.14
1002.61
1002.06
1001.5
1000.92
1000.32
999.701
999.067
998.416
997.75
997.068
996.372
995.662
994.94
994.207
993.464
992.713
991.955
991.192
990.426
989.659
988.891
988.127
987.367
986.614
985.869
985.134
984.411
983.701
983.007
982.33
981.672
981.033
980.415
979.819
979.245
978.695
978.169
977.668
977.191
976.74
976.313
975.912
975.535
975.184
974.857
974.554
974.275
974.019
973.786
973.576
973.387
973.219
973.072
972.945
972.838
972.749
972.678
972.625
972.589
972.569
972.566
972.577
972.603
972.642
972.696
972.762
972.84
972.929
973.03
973.142
973.263
973.394
973.534
973.682
973.838
974.001
974.172
974.348
974.529
974.716
974.907
975.102
975.3
975.501
975.704
975.908
976.114
976.32
976.525
976.73
976.933
977.135
977.334
977.53
977.723
977.912
978.096
978.276
978.451
978.619
978.782
978.938
979.088
979.231
979.367
979.494
979.615
979.727
979.832
979.928
980.016
980.096
980.167
980.23
980.285
980.331
980.368
980.396
980.416
980.426
980.427
980.419
980.401
980.373
980.335
980.286
980.226
980.155
980.072
979.977
979.872
979.754
979.626
979.487
979.339
979.182
979.017
978.845
978.669
978.49
978.31
978.132
977.957
977.788
977.627
977.478
977.343
977.224
977.123
977.044
976.988
976.956
976.952
976.975
977.027
977.108
977.22
977.361
977.532
977.731
977.957
978.209
978.485
978.784
979.104
979.441
979.795
980.162
980.54
980.927
981.32
981.717
982.117
982.516
982.913
983.307
983.696
984.078
984.453
984.818
985.174
985.52
985.855
986.179
986.492
986.794
987.084
987.364
987.633
987.892
988.141
988.382
988.614
988.839
989.057
989.269
989.475
989.677
989.875
990.069
990.26
990.449
990.636
990.821
991.004
991.186
991.366
991.545
991.722
991.897
992.069
992.238
992.403
992.565
992.721
992.873
993.018
993.156
993.287
993.409
993.522
993.624
993.716
993.796
993.864
993.919
993.96
993.986
993.997
993.992
993.97
993.93
993.87
993.79
993.69
993.565
993.411
993.236
993.034
992.778
992.479
992.179
991.791
991.238
990.719
990.256
989.217
987.848
987.309
986.046
981.609
977.577
975.433
1022.73
1027.52
1022.85
1018.54
1018.77
1018.48
1017.08
1016.12
1015.9
1015.53
1014.99
1014.59
1014.32
1014.03
1013.71
1013.44
1013.18
1012.93
1012.67
1012.42
1012.18
1011.93
1011.68
1011.43
1011.17
1010.91
1010.65
1010.38
1010.1
1009.81
1009.51
1009.21
1008.9
1008.57
1008.23
1007.89
1007.53
1007.15
1006.76
1006.36
1005.95
1005.52
1005.07
1004.61
1004.13
1003.63
1003.12
1002.58
1002.04
1001.47
1000.89
1000.29
999.668
999.033
998.381
997.713
997.03
996.333
995.622
994.9
994.166
993.423
992.672
991.913
991.15
990.385
989.618
988.851
988.088
987.329
986.576
985.833
985.099
984.378
983.67
982.979
982.304
981.648
981.011
980.396
979.802
979.231
978.684
978.16
977.662
977.188
976.739
976.315
975.916
975.541
975.192
974.867
974.566
974.289
974.035
973.804
973.595
973.407
973.241
973.095
972.969
972.863
972.775
972.705
972.652
972.617
972.598
972.594
972.606
972.632
972.672
972.725
972.791
972.869
972.959
973.06
973.171
973.293
973.423
973.563
973.711
973.867
974.03
974.2
974.376
974.557
974.744
974.935
975.13
975.328
975.528
975.731
975.935
976.141
976.347
976.553
976.757
976.961
977.163
977.362
977.558
977.752
977.941
978.125
978.305
978.48
978.649
978.812
978.968
979.118
979.261
979.396
979.524
979.644
979.757
979.861
979.957
980.045
980.125
980.195
980.258
980.312
980.358
980.394
980.423
980.442
980.452
980.453
980.445
980.427
980.399
980.361
980.313
980.254
980.183
980.101
980.008
979.903
979.787
979.66
979.522
979.375
979.218
979.053
978.882
978.706
978.526
978.346
978.165
977.989
977.818
977.655
977.503
977.364
977.241
977.137
977.054
976.993
976.958
976.949
976.968
977.016
977.093
977.201
977.339
977.506
977.702
977.926
978.176
978.45
978.748
979.066
979.403
979.755
980.122
980.5
980.887
981.281
981.679
982.078
982.479
982.877
983.272
983.662
984.045
984.421
984.788
985.145
985.492
985.828
986.153
986.467
986.771
987.062
987.343
987.613
987.873
988.122
988.364
988.597
988.822
989.04
989.252
989.459
989.66
989.858
990.052
990.243
990.432
990.618
990.803
990.986
991.168
991.348
991.526
991.703
991.878
992.05
992.219
992.385
992.546
992.703
992.855
993
993.139
993.27
993.392
993.505
993.609
993.701
993.782
993.85
993.905
993.946
993.972
993.983
993.977
993.954
993.914
993.854
993.771
993.669
993.547
993.39
993.203
993.008
992.765
992.433
992.112
991.812
991.246
990.524
990.24
989.623
987.593
986.706
987.637
983.086
977.139
981.382
1022.46
1021.18
1020.64
1021.8
1019.28
1017.18
1017.12
1017.02
1016.1
1015.38
1015.13
1014.85
1014.43
1014.08
1013.82
1013.54
1013.26
1012.99
1012.74
1012.49
1012.23
1011.98
1011.73
1011.47
1011.21
1010.95
1010.68
1010.41
1010.13
1009.84
1009.54
1009.23
1008.92
1008.59
1008.25
1007.9
1007.54
1007.16
1006.77
1006.37
1005.95
1005.52
1005.07
1004.61
1004.12
1003.62
1003.11
1002.58
1002.03
1001.46
1000.87
1000.27
999.646
999.008
998.354
997.684
996.998
996.298
995.584
994.859
994.122
993.376
992.622
991.862
991.096
990.328
989.559
988.791
988.026
987.266
986.513
985.768
985.035
984.313
983.606
982.915
982.242
981.587
980.952
980.339
979.747
979.179
978.634
978.114
977.618
977.146
976.701
976.28
975.884
975.513
975.166
974.844
974.546
974.272
974.021
973.792
973.586
973.401
973.237
973.093
972.969
972.865
972.779
972.711
972.66
972.626
972.608
972.606
972.619
972.646
972.687
972.741
972.808
972.887
972.977
973.079
973.191
973.313
973.444
973.584
973.733
973.889
974.053
974.223
974.4
974.582
974.769
974.96
975.155
975.354
975.555
975.758
975.963
976.169
976.375
976.581
976.787
976.991
977.193
977.393
977.59
977.784
977.973
978.159
978.339
978.514
978.683
978.847
979.004
979.154
979.297
979.432
979.561
979.681
979.794
979.898
979.994
980.081
980.161
980.231
980.294
980.348
980.393
980.429
980.457
980.476
980.487
980.487
980.479
980.462
980.434
980.397
980.349
980.29
980.22
980.139
980.047
979.943
979.827
979.7
979.562
979.415
979.257
979.091
978.918
978.74
978.558
978.374
978.189
978.008
977.833
977.665
977.508
977.363
977.235
977.125
977.036
976.97
976.929
976.915
976.929
976.973
977.047
977.151
977.286
977.451
977.645
977.868
978.117
978.392
978.69
979.008
979.346
979.7
980.068
980.448
980.838
981.233
981.633
982.036
982.438
982.839
983.236
983.628
984.014
984.391
984.76
985.12
985.468
985.806
986.133
986.448
986.752
987.044
987.326
987.596
987.856
988.107
988.348
988.581
988.806
989.024
989.235
989.441
989.642
989.84
990.033
990.224
990.412
990.598
990.782
990.965
991.147
991.327
991.506
991.683
991.858
992.03
992.2
992.366
992.529
992.687
992.839
992.986
993.126
993.258
993.381
993.496
993.6
993.693
993.775
993.845
993.901
993.943
993.97
993.982
993.977
993.954
993.913
993.855
993.776
993.671
993.546
993.402
993.221
992.997
992.77
992.511
992.125
991.721
991.417
990.846
989.917
989.474
989.075
987.077
985.377
985.464
984.456
982.448
1022.44
1020.26
1020.18
1020.05
1018.57
1018.14
1017.56
1016.7
1016.07
1015.76
1015.37
1014.9
1014.53
1014.25
1013.95
1013.64
1013.36
1013.09
1012.83
1012.57
1012.31
1012.06
1011.8
1011.54
1011.28
1011.01
1010.74
1010.47
1010.18
1009.89
1009.59
1009.28
1008.96
1008.63
1008.29
1007.94
1007.58
1007.2
1006.81
1006.4
1005.98
1005.55
1005.09
1004.63
1004.14
1003.64
1003.12
1002.58
1002.03
1001.46
1000.87
1000.26
999.635
998.993
998.334
997.659
996.968
996.262
995.544
994.813
994.071
993.319
992.56
991.794
991.023
990.25
989.477
988.704
987.935
987.172
986.415
985.668
984.932
984.21
983.502
982.81
982.137
981.482
980.849
980.237
979.648
979.081
978.54
978.022
977.529
977.062
976.62
976.203
975.811
975.444
975.102
974.784
974.49
974.22
973.973
973.748
973.545
973.364
973.204
973.064
972.943
972.842
972.759
972.693
972.645
972.614
972.599
972.599
972.614
972.643
972.686
972.742
972.811
972.892
972.984
973.087
973.2
973.324
973.457
973.598
973.748
973.906
974.071
974.242
974.42
974.602
974.79
974.982
975.179
975.378
975.58
975.785
975.99
976.197
976.404
976.611
976.817
977.022
977.225
977.426
977.624
977.819
978.009
978.195
978.376
978.552
978.722
978.886
979.043
979.194
979.338
979.474
979.602
979.723
979.836
979.94
980.036
980.124
980.203
980.273
980.336
980.39
980.434
980.471
980.499
980.518
980.528
980.529
980.521
980.503
980.476
980.439
980.392
980.333
980.264
980.183
980.091
979.987
979.871
979.743
979.604
979.455
979.295
979.127
978.95
978.768
978.581
978.392
978.202
978.014
977.832
977.657
977.492
977.34
977.204
977.087
976.991
976.918
976.871
976.852
976.861
976.9
976.971
977.072
977.205
977.369
977.563
977.786
978.036
978.312
978.612
978.933
979.273
979.631
980.002
980.386
980.778
981.178
981.582
981.988
982.394
982.798
983.199
983.594
983.982
984.363
984.734
985.096
985.446
985.786
986.114
986.43
986.735
987.029
987.31
987.581
987.841
988.091
988.332
988.564
988.789
989.006
989.217
989.422
989.622
989.819
990.012
990.202
990.389
990.575
990.759
990.942
991.123
991.304
991.483
991.66
991.836
992.01
992.181
992.348
992.512
992.672
992.826
992.975
993.116
993.25
993.375
993.492
993.598
993.693
993.777
993.849
993.907
993.951
993.98
993.994
993.992
993.972
993.934
993.876
993.802
993.704
993.578
993.435
993.275
993.062
992.811
992.583
992.285
991.82
991.442
991.176
990.376
989.41
989.389
988.604
986.273
985.988
986.06
984.108
1020.36
1020.37
1019.94
1018.46
1018.58
1018.41
1017.23
1016.59
1016.41
1015.98
1015.38
1015.01
1014.74
1014.41
1014.05
1013.76
1013.5
1013.22
1012.94
1012.68
1012.42
1012.16
1011.9
1011.64
1011.37
1011.1
1010.83
1010.55
1010.26
1009.97
1009.67
1009.36
1009.03
1008.7
1008.36
1008.01
1007.64
1007.26
1006.87
1006.46
1006.03
1005.59
1005.14
1004.67
1004.18
1003.68
1003.15
1002.61
1002.05
1001.48
1000.88
1000.27
999.634
998.985
998.319
997.637
996.938
996.226
995.499
994.759
994.009
993.25
992.482
991.708
990.929
990.148
989.368
988.588
987.813
987.043
986.281
985.529
984.789
984.063
983.352
982.659
981.984
981.33
980.697
980.086
979.499
978.935
978.396
977.882
977.393
976.93
976.492
976.08
975.694
975.332
974.995
974.683
974.394
974.13
973.888
973.669
973.471
973.295
973.139
973.004
972.888
972.791
972.713
972.651
972.608
972.58
972.568
972.572
972.591
972.623
972.669
972.729
972.8
972.884
972.978
973.084
973.201
973.326
973.461
973.605
973.757
973.917
974.083
974.256
974.435
974.62
974.809
975.003
975.201
975.401
975.605
975.81
976.017
976.225
976.433
976.641
976.849
977.055
977.258
977.46
977.659
977.854
978.045
978.232
978.414
978.591
978.762
978.926
979.084
979.236
979.38
979.517
979.646
979.767
979.88
979.985
980.081
980.169
980.248
980.319
980.381
980.435
980.48
980.516
980.544
980.563
980.573
980.575
980.567
980.549
980.522
980.485
980.438
980.38
980.31
980.229
980.136
980.031
979.914
979.785
979.644
979.492
979.329
979.156
978.975
978.787
978.593
978.397
978.2
978.004
977.813
977.629
977.455
977.295
977.15
977.025
976.92
976.841
976.787
976.761
976.766
976.802
976.869
976.969
977.101
977.264
977.459
977.683
977.935
978.214
978.517
978.842
979.187
979.549
979.925
980.313
980.711
981.115
981.524
981.935
982.345
982.754
983.158
983.557
983.949
984.333
984.707
985.071
985.424
985.765
986.095
986.412
986.718
987.012
987.294
987.564
987.824
988.074
988.314
988.546
988.769
988.985
989.195
989.399
989.599
989.794
989.986
990.175
990.362
990.548
990.732
990.915
991.097
991.278
991.458
991.637
991.814
991.989
992.161
992.331
992.497
992.659
992.815
992.966
993.11
993.247
993.375
993.494
993.603
993.702
993.788
993.863
993.925
993.972
994.005
994.022
994.023
994.008
993.975
993.923
993.85
993.762
993.651
993.507
993.347
993.18
992.949
992.664
992.435
992.149
991.62
991.199
991.016
990.235
989.167
989.023
988.608
987.225
986.34
986.253
1019.31
1019.69
1019.2
1018.54
1018.35
1017.6
1017.22
1016.95
1016.38
1015.84
1015.54
1015.25
1014.85
1014.49
1014.21
1013.93
1013.63
1013.34
1013.08
1012.82
1012.55
1012.28
1012.02
1011.76
1011.49
1011.22
1010.94
1010.66
1010.37
1010.07
1009.77
1009.46
1009.13
1008.8
1008.46
1008.1
1007.73
1007.35
1006.95
1006.54
1006.11
1005.67
1005.21
1004.74
1004.24
1003.73
1003.2
1002.66
1002.09
1001.51
1000.9
1000.28
999.643
998.985
998.31
997.618
996.91
996.186
995.449
994.699
993.938
993.167
992.388
991.602
990.813
990.021
989.23
988.441
987.656
986.878
986.108
985.35
984.604
983.873
983.158
982.462
981.785
981.129
980.496
979.886
979.3
978.739
978.203
977.693
977.208
976.75
976.318
975.912
975.531
975.176
974.846
974.54
974.258
974
973.765
973.552
973.362
973.192
973.042
972.913
972.803
972.712
972.639
972.584
972.545
972.523
972.516
972.525
972.548
972.586
972.636
972.699
972.775
972.863
972.961
973.071
973.19
973.32
973.458
973.605
973.759
973.922
974.091
974.267
974.448
974.635
974.826
975.022
975.221
975.423
975.628
975.835
976.043
976.253
976.462
976.671
976.879
977.086
977.291
977.493
977.693
977.888
978.081
978.268
978.451
978.628
978.799
978.965
979.124
979.276
979.42
979.558
979.687
979.809
979.923
980.028
980.125
980.213
980.293
980.364
980.427
980.481
980.526
980.562
980.59
980.61
980.62
980.621
980.613
980.596
980.568
980.531
980.484
980.425
980.355
980.273
980.179
980.073
979.953
979.822
979.677
979.521
979.354
979.175
978.988
978.793
978.592
978.387
978.181
977.976
977.775
977.581
977.398
977.228
977.074
976.94
976.827
976.74
976.68
976.649
976.649
976.682
976.747
976.845
976.977
977.141
977.338
977.564
977.82
978.102
978.41
978.74
979.09
979.457
979.839
980.233
980.636
981.046
981.46
981.876
982.292
982.705
983.114
983.517
983.913
984.3
984.677
985.043
985.398
985.742
986.073
986.392
986.698
986.992
987.274
987.545
987.804
988.053
988.292
988.522
988.745
988.96
989.168
989.371
989.57
989.764
989.956
990.144
990.331
990.516
990.701
990.884
991.067
991.249
991.431
991.611
991.79
991.967
992.142
992.314
992.483
992.647
992.807
992.961
993.108
993.248
993.38
993.503
993.616
993.718
993.809
993.888
993.954
994.006
994.043
994.066
994.073
994.063
994.036
993.994
993.929
993.845
993.749
993.628
993.47
993.307
993.139
992.886
992.595
992.398
992.086
991.522
991.215
991.023
990.152
989.441
989.331
988.579
987.792
987.589
1019.03
1018.72
1018.47
1018.59
1017.94
1017.35
1017.25
1016.8
1016.28
1015.98
1015.68
1015.28
1014.92
1014.65
1014.36
1014.05
1013.76
1013.5
1013.23
1012.96
1012.69
1012.43
1012.16
1011.9
1011.63
1011.35
1011.08
1010.79
1010.5
1010.2
1009.9
1009.58
1009.26
1008.92
1008.58
1008.22
1007.84
1007.46
1007.06
1006.64
1006.21
1005.77
1005.3
1004.82
1004.33
1003.81
1003.27
1002.72
1002.15
1001.56
1000.94
1000.31
999.662
998.994
998.307
997.603
996.882
996.145
995.395
994.631
993.856
993.071
992.277
991.478
990.675
989.869
989.065
988.264
987.467
986.678
985.899
985.131
984.377
983.64
982.919
982.219
981.539
980.881
980.247
979.637
979.053
978.494
977.962
977.456
976.976
976.524
976.098
975.698
975.325
974.977
974.654
974.356
974.083
973.832
973.605
973.4
973.217
973.055
972.914
972.792
972.689
972.605
972.539
972.49
972.458
972.443
972.442
972.457
972.486
972.53
972.586
972.655
972.736
972.828
972.932
973.046
973.17
973.304
973.447
973.597
973.756
973.922
974.094
974.273
974.457
974.647
974.841
975.039
975.24
975.444
975.651
975.859
976.069
976.279
976.49
976.699
976.908
977.116
977.321
977.524
977.724
977.92
978.112
978.3
978.483
978.66
978.832
978.998
979.157
979.309
979.455
979.593
979.722
979.845
979.959
980.065
980.162
980.252
980.332
980.404
980.467
980.521
980.567
980.604
980.632
980.652
980.662
980.664
980.656
980.638
980.61
980.573
980.525
980.465
980.394
980.311
980.215
980.106
979.984
979.849
979.701
979.54
979.367
979.182
978.987
978.784
978.575
978.361
978.145
977.93
977.719
977.515
977.321
977.141
976.978
976.835
976.715
976.621
976.555
976.519
976.516
976.545
976.609
976.707
976.839
977.005
977.203
977.434
977.693
977.98
978.293
978.628
978.984
979.358
979.746
980.146
980.556
980.972
981.392
981.813
982.234
982.652
983.066
983.473
983.872
984.263
984.643
985.011
985.369
985.714
986.046
986.366
986.673
986.967
987.249
987.519
987.778
988.025
988.264
988.493
988.714
988.927
989.135
989.337
989.534
989.728
989.919
990.108
990.294
990.48
990.665
990.849
991.034
991.217
991.401
991.583
991.764
991.945
992.122
992.298
992.47
992.638
992.801
992.959
993.11
993.255
993.391
993.518
993.636
993.743
993.839
993.923
993.995
994.053
994.096
994.125
994.14
994.138
994.119
994.086
994.037
993.965
993.874
993.777
993.654
993.487
993.326
993.176
992.915
992.617
992.464
992.179
991.613
991.333
991.19
990.536
989.888
989.692
989.376
988.633
1018.57
1018.35
1018.22
1018.01
1017.61
1017.46
1017.04
1016.58
1016.36
1016.05
1015.64
1015.32
1015.07
1014.77
1014.45
1014.17
1013.91
1013.64
1013.36
1013.1
1012.84
1012.58
1012.31
1012.05
1011.78
1011.51
1011.23
1010.94
1010.65
1010.35
1010.05
1009.73
1009.4
1009.07
1008.72
1008.36
1007.98
1007.59
1007.19
1006.77
1006.34
1005.89
1005.42
1004.93
1004.43
1003.91
1003.37
1002.8
1002.22
1001.62
1001
1000.35
999.692
999.011
998.31
997.591
996.856
996.104
995.337
994.557
993.765
992.962
992.152
991.336
990.516
989.694
988.874
988.058
987.247
986.444
985.653
984.874
984.111
983.365
982.638
981.932
981.248
980.588
979.952
979.343
978.76
978.204
977.675
977.173
976.7
976.254
975.835
975.443
975.077
974.738
974.424
974.135
973.87
973.629
973.41
973.215
973.041
972.887
972.754
972.641
972.547
972.471
972.413
972.373
972.348
972.34
972.347
972.37
972.406
972.456
972.519
972.595
972.682
972.781
972.891
973.011
973.141
973.28
973.428
973.583
973.747
973.917
974.094
974.276
974.464
974.657
974.854
975.055
975.258
975.464
975.673
975.883
976.094
976.305
976.516
976.727
976.936
977.143
977.349
977.551
977.751
977.947
978.139
978.326
978.509
978.686
978.857
979.023
979.182
979.334
979.479
979.617
979.747
979.869
979.984
980.091
980.189
980.278
980.359
980.432
980.496
980.551
980.597
980.635
980.664
980.684
980.695
980.696
980.688
980.671
980.643
980.605
980.555
980.495
980.422
980.337
980.239
980.127
980.002
979.863
979.71
979.544
979.365
979.173
978.971
978.76
978.541
978.318
978.093
977.868
977.647
977.432
977.229
977.039
976.868
976.716
976.589
976.488
976.417
976.377
976.37
976.397
976.46
976.558
976.692
976.86
977.062
977.296
977.56
977.852
978.17
978.512
978.874
979.254
979.649
980.055
980.471
980.893
981.319
981.746
982.172
982.595
983.013
983.425
983.828
984.221
984.604
984.975
985.334
985.68
986.014
986.333
986.641
986.935
987.216
987.486
987.743
987.99
988.227
988.455
988.674
988.887
989.093
989.294
989.491
989.684
989.875
990.064
990.251
990.437
990.624
990.81
990.996
991.182
991.367
991.553
991.737
991.921
992.102
992.281
992.457
992.63
992.798
992.96
993.117
993.266
993.407
993.54
993.664
993.777
993.879
993.969
994.047
994.113
994.164
994.202
994.224
994.233
994.227
994.203
994.166
994.116
994.042
993.952
993.862
993.743
993.577
993.439
993.306
993.047
992.793
992.683
992.392
991.941
991.747
991.514
991.02
990.689
990.394
989.883
1018.04
1018.06
1017.95
1017.59
1017.47
1017.27
1016.84
1016.6
1016.34
1015.98
1015.68
1015.43
1015.13
1014.82
1014.56
1014.31
1014.03
1013.76
1013.51
1013.25
1012.99
1012.73
1012.47
1012.21
1011.94
1011.67
1011.39
1011.11
1010.81
1010.52
1010.21
1009.89
1009.57
1009.23
1008.88
1008.52
1008.14
1007.75
1007.34
1006.92
1006.48
1006.03
1005.56
1005.06
1004.55
1004.02
1003.47
1002.9
1002.31
1001.7
1001.06
1000.41
999.732
999.036
998.32
997.585
996.831
996.062
995.276
994.477
993.665
992.843
992.013
991.176
990.337
989.496
988.658
987.823
986.996
986.178
985.372
984.581
983.806
983.05
982.315
981.602
980.914
980.251
979.614
979.004
978.423
977.87
977.345
976.849
976.381
975.942
975.531
975.147
974.791
974.461
974.156
973.877
973.622
973.391
973.184
972.998
972.834
972.69
972.567
972.463
972.379
972.312
972.263
972.232
972.216
972.217
972.233
972.263
972.308
972.366
972.437
972.52
972.615
972.722
972.839
972.966
973.102
973.248
973.402
973.563
973.732
973.908
974.09
974.277
974.469
974.666
974.866
975.07
975.276
975.485
975.695
975.906
976.119
976.331
976.542
976.752
976.962
977.169
977.374
977.576
977.774
977.969
978.16
978.346
978.527
978.703
978.873
979.037
979.194
979.346
979.49
979.627
979.757
979.879
979.993
980.1
980.198
980.288
980.37
980.443
980.508
980.564
980.611
980.65
980.679
980.7
980.711
980.713
980.706
980.688
980.659
980.621
980.571
980.508
980.434
980.347
980.246
980.132
980.003
979.859
979.702
979.53
979.345
979.146
978.937
978.718
978.491
978.259
978.024
977.79
977.559
977.336
977.123
976.925
976.745
976.587
976.453
976.346
976.271
976.227
976.218
976.244
976.307
976.406
976.541
976.712
976.917
977.155
977.424
977.722
978.046
978.394
978.762
979.148
979.549
979.962
980.384
980.812
981.244
981.676
982.107
982.535
982.957
983.372
983.778
984.175
984.56
984.933
985.293
985.64
985.974
986.294
986.601
986.895
987.175
987.443
987.7
987.945
988.181
988.407
988.625
988.837
989.042
989.242
989.438
989.631
989.822
990.011
990.2
990.388
990.575
990.764
990.953
991.141
991.33
991.519
991.708
991.895
992.081
992.265
992.446
992.624
992.797
992.965
993.127
993.282
993.429
993.568
993.699
993.819
993.928
994.026
994.112
994.185
994.246
994.294
994.328
994.348
994.355
994.348
994.323
994.289
994.245
994.175
994.092
994.021
993.916
993.761
993.656
993.559
993.323
993.115
993.049
992.823
992.469
992.312
992.154
991.797
991.484
991.163
1017.73
1017.72
1017.6
1017.45
1017.29
1016.98
1016.78
1016.58
1016.23
1015.96
1015.74
1015.45
1015.16
1014.92
1014.67
1014.4
1014.14
1013.89
1013.64
1013.39
1013.13
1012.88
1012.62
1012.36
1012.1
1011.83
1011.56
1011.27
1010.99
1010.69
1010.38
1010.07
1009.74
1009.4
1009.05
1008.69
1008.31
1007.92
1007.51
1007.09
1006.65
1006.19
1005.71
1005.21
1004.69
1004.16
1003.6
1003.02
1002.41
1001.79
1001.14
1000.47
999.781
999.069
998.335
997.582
996.81
996.019
995.213
994.391
993.557
992.713
991.86
991.001
990.139
989.276
988.417
987.562
986.715
985.88
985.057
984.251
983.463
982.696
981.952
981.232
980.538
979.872
979.233
978.624
978.044
977.494
976.974
976.483
976.023
975.592
975.19
974.816
974.469
974.149
973.856
973.588
973.344
973.124
972.927
972.752
972.599
972.467
972.354
972.261
972.187
972.13
972.092
972.07
972.064
972.075
972.1
972.14
972.193
972.26
972.34
972.432
972.536
972.651
972.776
972.911
973.055
973.208
973.369
973.538
973.714
973.896
974.083
974.275
974.472
974.674
974.878
975.085
975.295
975.506
975.718
975.931
976.144
976.357
976.568
976.779
976.987
977.193
977.396
977.596
977.793
977.986
978.174
978.358
978.537
978.71
978.877
979.039
979.194
979.343
979.485
979.621
979.749
979.87
979.983
980.089
980.186
980.276
980.358
980.432
980.497
980.554
980.602
980.641
980.671
980.693
980.705
980.708
980.701
980.683
980.655
980.615
980.564
980.501
980.425
980.336
980.233
980.115
979.983
979.835
979.673
979.496
979.305
979.1
978.884
978.658
978.424
978.184
977.941
977.698
977.459
977.228
977.008
976.802
976.616
976.451
976.312
976.202
976.122
976.076
976.066
976.092
976.155
976.255
976.392
976.566
976.775
977.017
977.291
977.594
977.924
978.278
978.652
979.044
979.452
979.871
980.298
980.732
981.169
981.606
982.041
982.473
982.899
983.317
983.726
984.124
984.511
984.885
985.246
985.593
985.927
986.247
986.553
986.846
987.125
987.392
987.647
987.89
988.124
988.349
988.565
988.775
988.979
989.179
989.375
989.568
989.76
989.95
990.14
990.33
990.52
990.711
990.903
991.096
991.289
991.482
991.675
991.868
992.059
992.248
992.435
992.618
992.797
992.972
993.14
993.302
993.456
993.603
993.74
993.868
993.986
994.092
994.188
994.272
994.343
994.402
994.449
994.482
994.503
994.514
994.511
994.491
994.468
994.437
994.378
994.315
994.271
994.189
994.067
994.008
993.942
993.764
993.637
993.589
993.423
993.23
993.104
992.932
992.751
992.426
1017.51
1017.43
1017.34
1017.27
1017.07
1016.86
1016.71
1016.44
1016.2
1015.99
1015.73
1015.46
1015.23
1014.99
1014.73
1014.49
1014.26
1014.01
1013.76
1013.52
1013.28
1013.03
1012.78
1012.52
1012.26
1012
1011.73
1011.45
1011.16
1010.87
1010.56
1010.25
1009.92
1009.59
1009.24
1008.87
1008.5
1008.1
1007.69
1007.27
1006.82
1006.36
1005.88
1005.37
1004.85
1004.3
1003.73
1003.14
1002.53
1001.89
1001.23
1000.55
999.84
999.11
998.357
997.583
996.79
995.977
995.147
994.301
993.442
992.572
991.694
990.809
989.922
989.035
988.151
987.273
986.405
985.549
984.709
983.885
983.083
982.304
981.549
980.821
980.122
979.451
978.811
978.202
977.624
977.078
976.563
976.08
975.627
975.205
974.813
974.449
974.114
973.806
973.524
973.268
973.037
972.829
972.644
972.481
972.34
972.219
972.118
972.037
971.974
971.928
971.9
971.889
971.894
971.915
971.951
972
972.064
972.141
972.23
972.332
972.445
972.569
972.704
972.848
973.001
973.162
973.331
973.508
973.691
973.88
974.074
974.272
974.475
974.681
974.89
975.101
975.314
975.528
975.743
975.957
976.171
976.384
976.596
976.805
977.012
977.217
977.418
977.616
977.809
977.999
978.184
978.364
978.538
978.707
978.871
979.028
979.18
979.325
979.464
979.596
979.721
979.84
979.951
980.054
980.15
980.239
980.32
980.393
980.458
980.515
980.564
980.604
980.635
980.657
980.67
980.674
980.667
980.65
980.622
980.583
980.531
980.468
980.391
980.3
980.194
980.074
979.939
979.788
979.621
979.44
979.244
979.035
978.813
978.581
978.34
978.094
977.845
977.595
977.35
977.112
976.886
976.675
976.483
976.315
976.172
976.058
975.977
975.929
975.918
975.944
976.008
976.11
976.25
976.427
976.64
976.886
977.165
977.473
977.809
978.168
978.548
978.945
979.358
979.783
980.215
980.654
981.095
981.536
981.976
982.41
982.839
983.259
983.67
984.07
984.457
984.832
985.193
985.541
985.874
986.193
986.497
986.788
987.065
987.33
987.583
987.824
988.056
988.279
988.494
988.703
988.906
989.105
989.301
989.494
989.687
989.878
990.07
990.263
990.456
990.651
990.847
991.044
991.242
991.44
991.639
991.837
992.035
992.23
992.423
992.613
992.799
992.981
993.156
993.325
993.487
993.642
993.788
993.925
994.052
994.168
994.274
994.369
994.452
994.524
994.585
994.635
994.672
994.699
994.72
994.727
994.72
994.716
994.707
994.67
994.638
994.632
994.585
994.51
994.505
994.489
994.385
994.335
994.338
994.26
994.151
994.084
994.015
993.751
1017.27
1017.24
1017.17
1017.05
1016.91
1016.79
1016.58
1016.36
1016.19
1015.96
1015.71
1015.5
1015.28
1015.04
1014.81
1014.59
1014.35
1014.12
1013.88
1013.65
1013.41
1013.17
1012.93
1012.68
1012.42
1012.16
1011.9
1011.62
1011.34
1011.05
1010.75
1010.44
1010.11
1009.78
1009.43
1009.07
1008.69
1008.3
1007.89
1007.46
1007.01
1006.54
1006.06
1005.55
1005.02
1004.46
1003.89
1003.28
1002.66
1002.01
1001.33
1000.63
999.907
999.157
998.385
997.589
996.771
995.934
995.078
994.205
993.319
992.421
991.514
990.601
989.686
988.771
987.86
986.957
986.064
985.186
984.324
983.483
982.665
981.872
981.106
980.369
979.664
978.989
978.347
977.739
977.164
976.623
976.114
975.638
975.195
974.783
974.402
974.05
973.727
973.432
973.163
972.92
972.702
972.508
972.336
972.187
972.058
971.95
971.861
971.792
971.741
971.707
971.691
971.691
971.707
971.739
971.786
971.846
971.921
972.008
972.108
972.22
972.344
972.478
972.622
972.776
972.939
973.11
973.288
973.473
973.664
973.861
974.063
974.268
974.477
974.689
974.903
975.119
975.336
975.553
975.77
975.986
976.201
976.414
976.626
976.834
977.04
977.242
977.44
977.634
977.824
978.009
978.19
978.365
978.534
978.698
978.856
979.008
979.154
979.293
979.427
979.554
979.674
979.788
979.895
979.995
980.088
980.174
980.253
980.325
980.388
980.445
980.493
980.534
980.565
980.588
980.602
980.606
980.601
980.585
980.557
980.518
980.467
980.403
980.326
980.234