# vtk DataFile Version 2.0
LBE mesh
ASCII
DATASET STRUCTURED_POINTS
DIMENSIONS 300 100 1
ASPECT_RATIO 1 1 1
ORIGIN 0 0 0
POINT_DATA 30000
SCALARS rho double 1
LOOKUP_TABLE default
1047.11
1015.46
1014.77
1021.25
1019.44
1015.55
1015.37
1015.9
1015.14
1014.36
1014.21
1014.06
1013.71
1013.42
1013.23
1013.04
1012.81
1012.6
1012.42
1012.22
1012.02
1011.83
1011.64
1011.44
1011.23
1011.03
1010.82
1010.6
1010.37
1010.14
1009.9
1009.64
1009.38
1009.11
1008.83
1008.54
1008.23
1007.92
1007.58
1007.24
1006.88
1006.51
1006.12
1005.71
1005.29
1004.85
1004.39
1003.91
1003.42
1002.91
1002.38
1001.83
1001.27
1000.69
1000.09
999.47
998.837
998.189
997.526
996.85
996.162
995.463
994.754
994.038
993.314
992.587
991.857
991.125
990.394
989.666
988.943
988.226
987.517
986.817
986.129
985.454
984.793
984.147
983.519
982.907
982.314
981.741
981.187
980.654
980.141
979.649
979.177
978.727
978.297
977.888
977.498
977.129
976.779
976.447
976.134
975.839
975.561
975.299
975.054
974.824
974.609
974.407
974.22
974.045
973.882
973.732
973.592
973.464
973.345
973.236
973.136
973.045
972.962
972.887
972.819
972.758
972.703
972.655
972.612
972.574
972.541
972.512
972.488
972.468
972.451
972.437
972.427
972.419
972.413
972.409
972.407
972.407
972.407
972.409
972.411
972.414
972.418
972.421
972.425
972.428
972.431
972.434
972.437
972.439
972.441
972.443
972.445
972.446
972.448
972.451
972.455
972.46
972.468
972.478
972.492
972.51
972.534
972.563
972.6
972.644
972.698
972.762
972.837
972.925
973.025
973.14
973.27
973.416
973.578
973.757
973.952
974.165
974.395
974.641
974.904
975.183
975.477
975.785
976.107
976.44
976.785
977.139
977.502
977.872
978.247
978.627
979.01
979.393
979.778
980.16
980.541
980.918
981.291
981.658
982.019
982.372
982.718
983.055
983.382
983.7
984.008
984.305
984.591
984.866
985.13
985.383
985.625
985.855
986.074
986.282
986.479
986.665
986.84
987.004
987.158
987.3
987.432
987.552
987.663
987.762
987.85
987.927
987.991
988.044
988.084
988.111
988.125
988.125
988.11
988.081
988.036
987.975
987.898
987.804
987.694
987.567
987.423
987.262
987.085
986.892
986.683
986.459
986.222
985.971
985.709
985.436
985.153
984.864
984.568
984.267
983.964
983.66
983.357
983.057
982.762
982.473
982.193
981.922
981.663
981.416
981.183
980.966
980.764
980.58
980.412
980.262
980.13
980.015
979.916
979.832
979.764
979.708
979.664
979.629
979.601
979.578
979.557
979.535
979.507
979.472
979.427
979.362
979.277
979.177
979.043
978.858
978.655
978.437
978.094
977.658
977.355
976.916
975.889
975.174
975.289
973.326
969.541
971.611
972.463
949.11
1030.02
1026.5
1022.43
1017.25
1017.45
1017.63
1016.47
1015.33
1015.11
1014.87
1014.41
1014.03
1013.81
1013.57
1013.31
1013.08
1012.87
1012.67
1012.46
1012.26
1012.06
1011.86
1011.66
1011.45
1011.25
1011.04
1010.82
1010.6
1010.37
1010.13
1009.89
1009.63
1009.37
1009.1
1008.81
1008.52
1008.21
1007.89
1007.56
1007.21
1006.85
1006.47
1006.08
1005.67
1005.25
1004.8
1004.35
1003.87
1003.37
1002.86
1002.33
1001.79
1001.22
1000.64
1000.04
999.42
998.788
998.14
997.478
996.803
996.117
995.419
994.712
993.997
993.276
992.551
991.823
991.094
990.366
989.641
988.921
988.207
987.501
986.805
986.12
985.448
984.791
984.149
983.523
982.914
982.325
981.754
981.203
980.672
980.162
979.673
979.204
978.755
978.327
977.919
977.532
977.164
976.815
976.485
976.173
975.878
975.601
975.341
975.096
974.867
974.652
974.451
974.264
974.089
973.927
973.777
973.638
973.51
973.392
973.283
973.183
973.092
973.01
972.935
972.867
972.806
972.751
972.703
972.66
972.623
972.59
972.562
972.538
972.517
972.5
972.487
972.476
972.468
972.462
972.458
972.456
972.455
972.455
972.456
972.458
972.461
972.464
972.467
972.47
972.473
972.476
972.478
972.48
972.482
972.483
972.484
972.485
972.486
972.488
972.49
972.494
972.499
972.506
972.516
972.529
972.547
972.57
972.598
972.634
972.678
972.731
972.793
972.867
972.954
973.053
973.167
973.295
973.439
973.599
973.775
973.969
974.179
974.406
974.65
974.911
975.187
975.478
975.784
976.104
976.435
976.777
977.129
977.49
977.858
978.231
978.609
978.99
979.373
979.756
980.138
980.517
980.894
981.266
981.632
981.993
982.346
982.691
983.028
983.355
983.673
983.981
984.279
984.565
984.841
985.105
985.359
985.601
985.832
986.051
986.26
986.457
986.643
986.819
986.983
987.137
987.28
987.412
987.533
987.644
987.743
987.832
987.909
987.975
988.028
988.069
988.097
988.112
988.113
988.1
988.072
988.028
987.969
987.894
987.803
987.694
987.569
987.428
987.269
987.094
986.903
986.696
986.475
986.239
985.99
985.73
985.458
985.177
984.888
984.593
984.293
983.99
983.687
983.384
983.083
982.787
982.497
982.215
981.943
981.681
981.433
981.198
980.978
980.773
980.585
980.414
980.261
980.125
980.006
979.903
979.815
979.743
979.683
979.635
979.596
979.564
979.537
979.511
979.484
979.454
979.413
979.362
979.296
979.209
979.094
978.956
978.788
978.563
978.289
978.008
977.635
977.1
976.592
976.138
975.14
973.845
973.349
972.223
968.117
964.415
962.564
1021.93
1026.75
1022.1
1017.82
1018.09
1017.82
1016.46
1015.53
1015.35
1015.02
1014.51
1014.15
1013.92
1013.66
1013.38
1013.15
1012.94
1012.72
1012.51
1012.3
1012.1
1011.89
1011.69
1011.48
1011.27
1011.06
1010.84
1010.61
1010.38
1010.14
1009.89
1009.64
1009.37
1009.1
1008.81
1008.51
1008.2
1007.88
1007.54
1007.19
1006.83
1006.45
1006.06
1005.65
1005.22
1004.78
1004.32
1003.84
1003.34
1002.83
1002.3
1001.75
1001.18
1000.6
999.998
999.38
998.747
998.098
997.436
996.76
996.073
995.375
994.668
993.953
993.232
992.508
991.78
991.052
990.325
989.602
988.883
988.17
987.466
986.772
986.089
985.419
984.764
984.124
983.501
982.896
982.308
981.741
981.193
980.665
980.157
979.67
979.203
978.757
978.332
977.927
977.541
977.175
976.828
976.5
976.19
975.897
975.622
975.363
975.12
974.892
974.678
974.479
974.293
974.119
973.958
973.809
973.671
973.543
973.426
973.318
973.219
973.129
973.047
972.972
972.905
972.845
972.791
972.743
972.701
972.664
972.632
972.604
972.581
972.561
972.544
972.531
972.52
972.513
972.507
972.503
972.501
972.5
972.501
972.502
972.504
972.506
972.509
972.511
972.514
972.516
972.519
972.521
972.522
972.523
972.524
972.525
972.525
972.526
972.527
972.528
972.531
972.535
972.541
972.55
972.562
972.578
972.6
972.627
972.661
972.703
972.754
972.815
972.886
972.971
973.068
973.179
973.305
973.447
973.604
973.778
973.969
974.178
974.403
974.645
974.903
975.177
975.467
975.771
976.089
976.419
976.76
977.112
977.472
977.839
978.212
978.589
978.97
979.353
979.736
980.117
980.497
980.874
981.246
981.613
981.973
982.327
982.673
983.01
983.338
983.657
983.965
984.263
984.55
984.826
985.091
985.345
985.587
985.819
986.039
986.248
986.445
986.632
986.808
986.973
987.127
987.27
987.403
987.524
987.635
987.735
987.825
987.902
987.969
988.023
988.066
988.095
988.112
988.114
988.103
988.077
988.035
987.978
987.905
987.816
987.71
987.587
987.447
987.291
987.117
986.928
986.723
986.502
986.268
986.02
985.759
985.488
985.206
984.917
984.621
984.32
984.016
983.711
983.406
983.103
982.805
982.512
982.227
981.952
981.687
981.435
981.196
980.973
980.765
980.573
980.399
980.242
980.102
979.98
979.874
979.783
979.708
979.645
979.595
979.553
979.52
979.491
979.463
979.435
979.404
979.363
979.309
979.243
979.159
979.042
978.895
978.735
978.524
978.222
977.923
977.636
977.089
976.394
976.111
975.509
973.596
972.794
973.707
969.507
964.088
968.348
1021.65
1020.4
1019.89
1021.09
1018.6
1016.52
1016.5
1016.44
1015.55
1014.87
1014.65
1014.41
1014.02
1013.71
1013.49
1013.26
1013.01
1012.78
1012.58
1012.36
1012.15
1011.94
1011.74
1011.52
1011.31
1011.09
1010.87
1010.64
1010.41
1010.16
1009.92
1009.66
1009.39
1009.11
1008.82
1008.52
1008.21
1007.89
1007.55
1007.2
1006.83
1006.45
1006.06
1005.64
1005.21
1004.77
1004.31
1003.83
1003.33
1002.81
1002.28
1001.73
1001.16
1000.57
999.967
999.346
998.71
998.059
997.394
996.715
996.025
995.325
994.615
993.898
993.175
992.449
991.72
990.99
990.262
989.537
988.818
988.105
987.401
986.707
986.026
985.357
984.704
984.065
983.444
982.841
982.257
981.692
981.147
980.622
980.117
979.633
979.17
978.727
978.305
977.904
977.521
977.158
976.814
976.489
976.182
975.892
975.619
975.362
975.121
974.895
974.684
974.486
974.302
974.13
973.971
973.823
973.686
973.56
973.444
973.337
973.24
973.15
973.07
972.996
972.93
972.871
972.818
972.771
972.729
972.693
972.662
972.635
972.612
972.594
972.578
972.565
972.556
972.548
972.543
972.541
972.539
972.539
972.539
972.541
972.543
972.546
972.548
972.551
972.554
972.556
972.558
972.56
972.561
972.562
972.562
972.562
972.562
972.562
972.561
972.562
972.563
972.566
972.571
972.578
972.588
972.603
972.622
972.647
972.679
972.718
972.766
972.824
972.894
972.975
973.069
973.177
973.301
973.439
973.595
973.766
973.955
974.162
974.385
974.625
974.883
975.156
975.445
975.749
976.066
976.396
976.737
977.089
977.449
977.817
978.19
978.569
978.95
979.334
979.717
980.1
980.481
980.858
981.232
981.6
981.961
982.316
982.662
983
983.329
983.648
983.958
984.256
984.544
984.821
985.086
985.341
985.584
985.816
986.036
986.245
986.443
986.63
986.806
986.971
987.126
987.269
987.402
987.524
987.636
987.737
987.827
987.906
987.973
988.029
988.073
988.104
988.123
988.128
988.118
988.094
988.055
988
987.93
987.842
987.739
987.618
987.48
987.325
987.153
986.965
986.76
986.54
986.305
986.057
985.795
985.523
985.24
984.949
984.651
984.347
984.04
983.731
983.423
983.116
982.813
982.517
982.228
981.948
981.679
981.423
981.18
980.952
980.74
980.545
980.367
980.207
980.064
979.938
979.83
979.738
979.66
979.597
979.545
979.504
979.47
979.441
979.415
979.388
979.356
979.319
979.27
979.202
979.117
979.015
978.874
978.689
978.495
978.262
977.903
977.517
977.22
976.664
975.77
975.341
974.97
973.12
971.557
971.77
971.063
969.509
1021.64
1019.48
1019.43
1019.34
1017.88
1017.49
1016.95
1016.12
1015.53
1015.25
1014.89
1014.46
1014.13
1013.88
1013.62
1013.35
1013.11
1012.89
1012.67
1012.45
1012.23
1012.02
1011.8
1011.59
1011.37
1011.15
1010.93
1010.69
1010.46
1010.21
1009.96
1009.7
1009.43
1009.15
1008.86
1008.56
1008.24
1007.92
1007.58
1007.22
1006.85
1006.47
1006.07
1005.66
1005.23
1004.78
1004.31
1003.83
1003.33
1002.81
1002.27
1001.71
1001.14
1000.55
999.94
999.315
998.674
998.018
997.347
996.664
995.968
995.263
994.548
993.826
993.099
992.368
991.634
990.902
990.17
989.442
988.72
988.005
987.3
986.605
985.923
985.255
984.602
983.965
983.345
982.744
982.162
981.6
981.058
980.537
980.036
979.557
979.098
978.659
978.241
977.844
977.466
977.107
976.767
976.446
976.143
975.857
975.587
975.334
975.096
974.873
974.664
974.47
974.288
974.119
973.961
973.815
973.68
973.556
973.441
973.336
973.24
973.152
973.072
973
972.936
972.877
972.826
972.78
972.74
972.705
972.674
972.649
972.627
972.609
972.595
972.584
972.575
972.569
972.565
972.563
972.563
972.564
972.565
972.568
972.571
972.574
972.578
972.581
972.584
972.587
972.589
972.591
972.592
972.593
972.593
972.592
972.591
972.59
972.589
972.588
972.589
972.59
972.593
972.598
972.606
972.618
972.634
972.656
972.685
972.722
972.767
972.822
972.888
972.966
973.057
973.163
973.283
973.419
973.572
973.742
973.929
974.134
974.356
974.596
974.852
975.126
975.415
975.719
976.037
976.367
976.71
977.062
977.424
977.793
978.169
978.548
978.931
979.317
979.702
980.086
980.469
980.848
981.223
981.592
981.955
982.311
982.659
982.998
983.328
983.648
983.958
984.258
984.546
984.824
985.09
985.345
985.589
985.821
986.042
986.251
986.449
986.637
986.813
986.978
987.133
987.277
987.41
987.533
987.645
987.747
987.838
987.918
987.987
988.044
988.09
988.124
988.144
988.151
988.144
988.122
988.086
988.034
987.965
987.88
987.779
987.66
987.524
987.37
987.199
987.011
986.807
986.586
986.35
986.1
985.837
985.562
985.276
984.981
984.68
984.372
984.06
983.747
983.433
983.122
982.814
982.512
982.218
981.933
981.659
981.398
981.15
980.917
980.701
980.503
980.321
980.157
980.012
979.884
979.774
979.681
979.603
979.539
979.488
979.448
979.416
979.389
979.366
979.342
979.314
979.279
979.236
979.177
979.093
978.993
978.874
978.699
978.483
978.279
978.002
977.557
977.187
976.918
976.145
975.224
975.205
974.503
972.398
972.281
972.607
971.19
1019.55
1019.59
1019.19
1017.74
1017.89
1017.76
1016.61
1016.01
1015.86
1015.46
1014.9
1014.57
1014.34
1014.04
1013.73
1013.47
1013.25
1013.01
1012.78
1012.55
1012.34
1012.12
1011.9
1011.68
1011.46
1011.24
1011.01
1010.77
1010.53
1010.29
1010.03
1009.77
1009.5
1009.21
1008.92
1008.62
1008.3
1007.97
1007.63
1007.27
1006.9
1006.51
1006.11
1005.69
1005.26
1004.8
1004.33
1003.85
1003.34
1002.81
1002.27
1001.71
1001.13
1000.53
999.917
999.285
998.636
997.972
997.294
996.603
995.9
995.186
994.464
993.734
993
992.261
991.521
990.782
990.045
989.312
988.585
987.866
987.158
986.461
985.777
985.107
984.454
983.818
983.2
982.601
982.022
981.463
980.925
980.408
979.911
979.437
978.983
978.55
978.137
977.745
977.372
977.019
976.685
976.369
976.07
975.789
975.524
975.275
975.042
974.822
974.617
974.426
974.247
974.081
973.926
973.783
973.65
973.527
973.414
973.311
973.216
973.13
973.051
972.98
972.917
972.86
972.81
972.765
972.726
972.692
972.663
972.639
972.619
972.602
972.589
972.58
972.573
972.568
972.566
972.566
972.567
972.569
972.572
972.576
972.581
972.586
972.59
972.595
972.599
972.603
972.606
972.609
972.61
972.611
972.611
972.61
972.609
972.608
972.606
972.604
972.603
972.603
972.604
972.607
972.612
972.622
972.636
972.655
972.681
972.715
972.757
972.808
972.871
972.946
973.035
973.137
973.255
973.39
973.54
973.709
973.895
974.099
974.32
974.56
974.817
975.091
975.381
975.686
976.005
976.337
976.682
977.036
977.4
977.771
978.149
978.531
978.916
979.303
979.691
980.077
980.462
980.843
981.22
981.59
981.955
982.312
982.661
983.002
983.333
983.655
983.966
984.266
984.555
984.833
985.101
985.356
985.6
985.833
986.054
986.264
986.463
986.65
986.827
986.993
987.148
987.292
987.426
987.549
987.663
987.765
987.857
987.938
988.009
988.068
988.116
988.151
988.174
988.183
988.179
988.16
988.126
988.077
988.011
987.928
987.828
987.711
987.576
987.424
987.253
987.065
986.86
986.638
986.4
986.148
985.882
985.603
985.314
985.014
984.707
984.394
984.077
983.758
983.439
983.121
982.807
982.499
982.199
981.908
981.628
981.361
981.108
980.871
980.651
980.448
980.263
980.096
979.948
979.819
979.708
979.614
979.536
979.474
979.424
979.386
979.357
979.334
979.314
979.295
979.275
979.246
979.207
979.158
979.09
978.989
978.871
978.74
978.54
978.281
978.065
977.786
977.27
976.85
976.656
975.91
974.907
974.806
974.528
973.398
972.845
973.262
1018.49
1018.9
1018.45
1017.83
1017.66
1016.94
1016.6
1016.37
1015.83
1015.33
1015.07
1014.81
1014.44
1014.12
1013.88
1013.64
1013.38
1013.14
1012.91
1012.69
1012.46
1012.24
1012.02
1011.8
1011.58
1011.35
1011.12
1010.88
1010.64
1010.39
1010.13
1009.86
1009.59
1009.3
1009.01
1008.7
1008.38
1008.05
1007.7
1007.34
1006.97
1006.58
1006.17
1005.75
1005.31
1004.85
1004.38
1003.88
1003.37
1002.84
1002.29
1001.72
1001.13
1000.52
999.897
999.255
998.597
997.923
997.235
996.533
995.819
995.095
994.362
993.622
992.877
992.129
991.379
990.63
989.885
989.145
988.411
987.687
986.973
986.272
985.586
984.914
984.26
983.624
983.007
982.41
981.833
981.278
980.744
980.232
979.741
979.272
978.824
978.397
977.991
977.605
977.24
976.893
976.565
976.256
975.963
975.688
975.428
975.185
974.956
974.742
974.541
974.353
974.178
974.015
973.863
973.722
973.592
973.471
973.361
973.259
973.166
973.081
973.003
972.933
972.871
972.815
972.765
972.721
972.683
972.65
972.623
972.6
972.581
972.565
972.554
972.546
972.541
972.538
972.538
972.54
972.543
972.547
972.553
972.559
972.566
972.573
972.58
972.586
972.593
972.599
972.603
972.608
972.611
972.612
972.613
972.613
972.612
972.611
972.608
972.606
972.604
972.603
972.602
972.604
972.608
972.615
972.627
972.644
972.667
972.698
972.737
972.786
972.846
972.919
973.005
973.106
973.222
973.354
973.504
973.672
973.857
974.061
974.283
974.523
974.781
975.056
975.348
975.655
975.976
976.311
976.657
977.015
977.38
977.754
978.135
978.519
978.907
979.296
979.686
980.075
980.461
980.844
981.223
981.595
981.961
982.32
982.671
983.012
983.345
983.667
983.979
984.28
984.571
984.849
985.117
985.373
985.618
985.851
986.073
986.283
986.482
986.67
986.847
987.013
987.169
987.314
987.448
987.573
987.687
987.79
987.883
987.966
988.038
988.099
988.149
988.186
988.211
988.223
988.221
988.205
988.174
988.127
988.064
987.983
987.885
987.77
987.636
987.484
987.314
987.125
986.918
986.694
986.454
986.198
985.928
985.645
985.351
985.046
984.733
984.414
984.09
983.764
983.438
983.113
982.793
982.478
982.171
981.874
981.588
981.315
981.057
980.815
980.59
980.383
980.195
980.025
979.875
979.745
979.632
979.539
979.462
979.401
979.354
979.319
979.293
979.276
979.262
979.249
979.236
979.217
979.187
979.143
979.089
979.01
978.892
978.763
978.621
978.388
978.109
977.908
977.591
977.03
976.713
976.513
975.701
975.07
975.075
974.547
974.089
974.436
1018.22
1017.93
1017.72
1017.87
1017.26
1016.7
1016.63
1016.22
1015.73
1015.47
1015.2
1014.84
1014.52
1014.29
1014.03
1013.76
1013.51
1013.29
1013.06
1012.83
1012.6
1012.38
1012.16
1011.94
1011.71
1011.48
1011.25
1011.01
1010.76
1010.51
1010.25
1009.98
1009.71
1009.42
1009.12
1008.81
1008.49
1008.15
1007.8
1007.44
1007.06
1006.67
1006.26
1005.83
1005.38
1004.92
1004.43
1003.93
1003.41
1002.87
1002.31
1001.73
1001.13
1000.52
999.881
999.228
998.557
997.87
997.169
996.453
995.726
994.989
994.242
993.489
992.73
991.97
991.208
990.448
989.692
988.942
988.2
987.468
986.748
986.042
985.351
984.677
984.021
983.384
982.768
982.173
981.599
981.047
980.518
980.011
979.527
979.064
978.623
978.204
977.805
977.427
977.069
976.73
976.41
976.108
975.822
975.554
975.301
975.064
974.841
974.632
974.436
974.252
974.081
973.922
973.773
973.635
973.507
973.389
973.28
973.179
973.087
973.003
972.926
972.857
972.795
972.739
972.69
972.647
972.609
972.577
972.55
972.527
972.509
972.495
972.485
972.478
972.475
972.474
972.476
972.48
972.486
972.493
972.501
972.511
972.52
972.531
972.54
972.55
972.559
972.568
972.576
972.582
972.588
972.592
972.594
972.596
972.596
972.596
972.594
972.593
972.591
972.589
972.588
972.589
972.591
972.598
972.608
972.623
972.645
972.674
972.711
972.759
972.817
972.888
972.973
973.072
973.188
973.32
973.469
973.637
973.822
974.027
974.25
974.492
974.751
975.028
975.322
975.631
975.955
976.292
976.641
977.001
977.37
977.746
978.129
978.516
978.906
979.298
979.689
980.08
980.468
980.853
981.233
981.607
981.974
982.334
982.686
983.028
983.362
983.685
983.997
984.299
984.59
984.87
985.138
985.394
985.64
985.873
986.095
986.306
986.506
986.694
986.872
987.039
987.195
987.341
987.476
987.601
987.716
987.821
987.915
988
988.074
988.136
988.188
988.227
988.255
988.269
988.27
988.256
988.228
988.183
988.122
988.044
987.948
987.834
987.701
987.549
987.378
987.188
986.98
986.754
986.51
986.251
985.976
985.688
985.387
985.076
984.757
984.43
984.099
983.766
983.432
983.1
982.772
982.45
982.136
981.832
981.54
981.261
980.997
980.75
980.52
980.309
980.117
979.945
979.794
979.661
979.549
979.456
979.38
979.321
979.277
979.247
979.226
979.214
979.208
979.203
979.197
979.188
979.172
979.139
979.089
979.032
978.945
978.808
978.669
978.528
978.27
977.966
977.79
977.485
976.914
976.62
976.484
975.901
975.388
975.38
975.354
975.181
1017.75
1017.57
1017.46
1017.29
1016.93
1016.8
1016.42
1016
1015.81
1015.54
1015.17
1014.88
1014.67
1014.4
1014.12
1013.88
1013.66
1013.43
1013.19
1012.97
1012.75
1012.53
1012.31
1012.08
1011.86
1011.63
1011.39
1011.15
1010.91
1010.65
1010.39
1010.12
1009.84
1009.55
1009.25
1008.94
1008.62
1008.28
1007.93
1007.56
1007.17
1006.77
1006.36
1005.92
1005.47
1005
1004.51
1004
1003.47
1002.92
1002.35
1001.76
1001.15
1000.52
999.869
999.201
998.516
997.814
997.097
996.365
995.622
994.868
994.105
993.336
992.562
991.786
991.01
990.236
989.467
988.705
987.952
987.211
986.482
985.77
985.074
984.396
983.738
983.1
982.485
981.892
981.321
980.773
980.249
979.748
979.27
978.815
978.382
977.971
977.581
977.212
976.863
976.533
976.221
975.927
975.65
975.39
975.144
974.914
974.697
974.494
974.304
974.125
973.959
973.803
973.658
973.523
973.397
973.28
973.173
973.073
972.982
972.898
972.822
972.752
972.69
972.634
972.584
972.54
972.502
972.47
972.442
972.42
972.402
972.388
972.379
972.373
972.371
972.372
972.375
972.382
972.39
972.4
972.412
972.425
972.438
972.452
972.466
972.48
972.493
972.505
972.517
972.528
972.537
972.545
972.551
972.555
972.559
972.561
972.561
972.561
972.561
972.56
972.56
972.561
972.565
972.571
972.581
972.596
972.617
972.646
972.683
972.73
972.788
972.859
972.943
973.043
973.158
973.291
973.441
973.609
973.797
974.003
974.228
974.471
974.733
975.013
975.309
975.62
975.947
976.287
976.638
977.001
977.372
977.751
978.135
978.525
978.917
979.31
979.703
980.095
980.485
980.87
981.251
981.626
981.994
982.354
982.706
983.049
983.383
983.706
984.019
984.321
984.613
984.893
985.161
985.418
985.664
985.898
986.12
986.331
986.532
986.721
986.899
987.066
987.223
987.37
987.506
987.633
987.749
987.855
987.951
988.037
988.112
988.177
988.23
988.272
988.302
988.318
988.322
988.311
988.284
988.243
988.184
988.108
988.013
987.9
987.768
987.616
987.445
987.253
987.043
986.814
986.567
986.303
986.024
985.729
985.422
985.105
984.778
984.444
984.105
983.764
983.422
983.083
982.747
982.417
982.096
981.785
981.486
981.201
980.931
980.678
980.444
980.228
980.033
979.858
979.705
979.571
979.458
979.365
979.291
979.235
979.195
979.169
979.154
979.149
979.15
979.155
979.16
979.159
979.154
979.14
979.104
979.051
978.992
978.896
978.746
978.608
978.463
978.186
977.902
977.747
977.423
976.955
976.752
976.548
976.156
975.998
975.963
975.977
1017.22
1017.27
1017.19
1016.87
1016.78
1016.62
1016.22
1016.01
1015.79
1015.46
1015.2
1014.99
1014.72
1014.46
1014.23
1014.01
1013.78
1013.55
1013.33
1013.12
1012.9
1012.68
1012.46
1012.24
1012.01
1011.78
1011.55
1011.31
1011.06
1010.81
1010.55
1010.28
1010
1009.71
1009.4
1009.09
1008.76
1008.42
1008.07
1007.69
1007.31
1006.9
1006.48
1006.04
1005.58
1005.1
1004.6
1004.08
1003.54
1002.98
1002.4
1001.79
1001.17
1000.53
999.861
999.177
998.475
997.755
997.02
996.27
995.508
994.734
993.953
993.165
992.372
991.578
990.785
989.995
989.211
988.435
987.669
986.917
986.179
985.459
984.756
984.074
983.413
982.775
982.16
981.569
981.001
980.458
979.94
979.446
978.976
978.529
978.105
977.703
977.323
976.964
976.625
976.304
976.002
975.718
975.45
975.198
974.961
974.738
974.528
974.332
974.148
973.975
973.813
973.661
973.519
973.387
973.263
973.148
973.042
972.943
972.852
972.768
972.691
972.62
972.557
972.5
972.449
972.403
972.364
972.33
972.301
972.278
972.259
972.245
972.235
972.229
972.228
972.23
972.235
972.243
972.254
972.267
972.281
972.298
972.316
972.334
972.352
972.371
972.389
972.407
972.424
972.44
972.455
972.468
972.479
972.488
972.496
972.503
972.508
972.511
972.514
972.517
972.519
972.523
972.528
972.537
972.549
972.565
972.588
972.617
972.656
972.704
972.764
972.836
972.922
973.023
973.14
973.275
973.427
973.597
973.786
973.995
974.223
974.469
974.733
975.015
975.313
975.628
975.957
976.299
976.653
977.018
977.391
977.771
978.157
978.548
978.941
979.335
979.729
980.122
980.511
980.897
981.278
981.653
982.02
982.381
982.733
983.075
983.408
983.731
984.044
984.346
984.637
984.917
985.185
985.442
985.688
985.922
986.145
986.357
986.557
986.747
986.926
987.094
987.252
987.4
987.537
987.665
987.782
987.89
987.988
988.075
988.152
988.219
988.274
988.318
988.35
988.369
988.375
988.366
988.342
988.303
988.246
988.172
988.079
987.967
987.835
987.683
987.511
987.318
987.106
986.874
986.623
986.354
986.069
985.769
985.456
985.131
984.797
984.455
984.108
983.759
983.409
983.061
982.718
982.38
982.051
981.733
981.427
981.135
980.859
980.601
980.361
980.142
979.943
979.765
979.609
979.475
979.361
979.269
979.197
979.143
979.107
979.085
979.077
979.079
979.088
979.102
979.119
979.132
979.137
979.137
979.126
979.087
979.03
978.973
978.872
978.709
978.578
978.441
978.16
977.895
977.763
977.486
977.108
976.945
976.839
976.616
976.507
976.648
1016.91
1016.93
1016.84
1016.73
1016.6
1016.32
1016.16
1015.99
1015.68
1015.45
1015.26
1015.01
1014.75
1014.55
1014.33
1014.1
1013.88
1013.68
1013.46
1013.25
1013.03
1012.82
1012.61
1012.39
1012.17
1011.94
1011.71
1011.47
1011.23
1010.97
1010.71
1010.44
1010.16
1009.87
1009.57
1009.25
1008.92
1008.58
1008.22
1007.84
1007.45
1007.04
1006.62
1006.17
1005.7
1005.21
1004.71
1004.18
1003.63
1003.05
1002.46
1001.84
1001.2
1000.54
999.856
999.154
998.433
997.693
996.937
996.166
995.383
994.588
993.785
992.975
992.161
991.347
990.534
989.725
988.923
988.132
987.352
986.587
985.839
985.109
984.399
983.713
983.049
982.409
981.795
981.205
980.642
980.104
979.593
979.107
978.645
978.208
977.794
977.403
977.034
976.685
976.357
976.047
975.756
975.483
975.224
974.982
974.754
974.54
974.339
974.149
973.971
973.804
973.647
973.499
973.361
973.231
973.11
972.997
972.891
972.792
972.701
972.616
972.538
972.466
972.4
972.341
972.287
972.239
972.197
972.161
972.129
972.103
972.083
972.066
972.055
972.049
972.046
972.048
972.054
972.063
972.076
972.091
972.109
972.129
972.15
972.174
972.197
972.221
972.246
972.27
972.294
972.317
972.338
972.358
972.376
972.393
972.407
972.42
972.432
972.442
972.45
972.458
972.466
972.474
972.485
972.497
972.513
972.534
972.56
972.593
972.635
972.687
972.749
972.825
972.914
973.019
973.139
973.276
973.432
973.605
973.798
974.01
974.24
974.489
974.757
975.041
975.343
975.659
975.99
976.334
976.69
977.056
977.43
977.812
978.198
978.589
978.982
979.376
979.77
980.161
980.55
980.935
981.315
981.688
982.055
982.414
982.764
983.106
983.438
983.759
984.071
984.372
984.662
984.941
985.209
985.465
985.71
985.944
986.167
986.379
986.58
986.77
986.95
987.119
987.279
987.427
987.566
987.695
987.814
987.923
988.022
988.112
988.191
988.259
988.317
988.363
988.397
988.418
988.426
988.419
988.398
988.361
988.306
988.233
988.142
988.031
987.9
987.747
987.575
987.381
987.166
986.931
986.676
986.403
986.113
985.806
985.487
985.155
984.813
984.464
984.109
983.752
983.394
983.038
982.686
982.34
982.004
981.678
981.365
981.066
980.784
980.52
980.275
980.051
979.848
979.667
979.509
979.373
979.259
979.167
979.096
979.045
979.013
978.997
978.995
979.005
979.024
979.048
979.075
979.103
979.124
979.134
979.139
979.132
979.091
979.034
978.98
978.874
978.713
978.595
978.455
978.199
977.984
977.846
977.611
977.376
977.253
977.15
977.096
977.146
1016.69
1016.64
1016.58
1016.55
1016.38
1016.2
1016.08
1015.85
1015.64
1015.47
1015.24
1015.01
1014.82
1014.62
1014.4
1014.19
1013.99
1013.79
1013.58
1013.37
1013.17
1012.96
1012.75
1012.54
1012.32
1012.1
1011.87
1011.63
1011.39
1011.14
1010.88
1010.61
1010.33
1010.04
1009.74
1009.42
1009.09
1008.75
1008.38
1008.01
1007.61
1007.2
1006.76
1006.31
1005.84
1005.34
1004.82
1004.28
1003.72
1003.13
1002.52
1001.89
1001.23
1000.56
999.855
999.133
998.39
997.629
996.85
996.055
995.248
994.429
993.601
992.767
991.93
991.092
990.257
989.427
988.606
987.796
987
986.221
985.46
984.721
984.004
983.311
982.644
982.003
981.389
980.803
980.244
979.713
979.209
978.731
978.28
977.853
977.451
977.071
976.714
976.379
976.063
975.766
975.486
975.224
974.978
974.746
974.528
974.323
974.13
973.948
973.777
973.616
973.465
973.321
973.187
973.06
972.941
972.828
972.723
972.625
972.532
972.446
972.365
972.291
972.222
972.16
972.103
972.051
972.005
971.965
971.93
971.9
971.876
971.856
971.842
971.833
971.829
971.83
971.834
971.844
971.857
971.874
971.894
971.917
971.943
971.971
972
972.03
972.062
972.093
972.124
972.155
972.185
972.214
972.241
972.267
972.291
972.313
972.333
972.352
972.369
972.385
972.401
972.417
972.435
972.455
972.477
972.505
972.537
972.577
972.625
972.682
972.75
972.831
972.925
973.035
973.16
973.302
973.462
973.64
973.837
974.052
974.286
974.539
974.809
975.096
975.4
975.719
976.051
976.396
976.753
977.119
977.494
977.875
978.261
978.651
979.043
979.435
979.827
980.217
980.603
980.986
981.363
981.734
982.098
982.454
982.802
983.141
983.471
983.79
984.099
984.398
984.686
984.964
985.23
985.485
985.729
985.962
986.185
986.397
986.597
986.788
986.968
987.138
987.298
987.448
987.588
987.719
987.839
987.95
988.051
988.143
988.224
988.294
988.354
988.402
988.438
988.462
988.472
988.468
988.448
988.413
988.36
988.289
988.199
988.089
987.958
987.806
987.633
987.438
987.221
986.983
986.725
986.448
986.152
985.84
985.515
985.176
984.827
984.47
984.107
983.742
983.376
983.011
982.652
982.298
981.954
981.621
981.3
980.995
980.706
980.436
980.186
979.957
979.749
979.565
979.404
979.266
979.152
979.06
978.991
978.943
978.914
978.904
978.909
978.926
978.955
978.991
979.029
979.069
979.109
979.138
979.153
979.164
979.161
979.119
979.065
979.017
978.91
978.759
978.654
978.523
978.3
978.124
978.008
977.834
977.664
977.595
977.564
977.557
1016.45
1016.45
1016.41
1016.33
1016.21
1016.12
1015.95
1015.76
1015.63
1015.44
1015.23
1015.05
1014.87
1014.66
1014.47
1014.28
1014.09
1013.89
1013.69
1013.5
1013.3
1013.1
1012.89
1012.68
1012.47
1012.25
1012.03
1011.8
1011.56
1011.31
1011.05
1010.79
1010.51
1010.22
1009.92
1009.6
1009.27
1008.92
1008.56
1008.18
1007.78
1007.36
1006.92
1006.46
1005.98
1005.48
1004.95
1004.4
1003.82
1003.22
1002.6
1001.95
1001.28
1000.58
999.857
999.113
998.347
997.561
996.757
995.937
995.102
994.257
993.402
992.541
991.677
990.813
989.953
989.1
988.257
987.427
986.612
985.817
985.043
984.293
983.568
982.869
982.199
981.557
980.944
980.362
979.808
979.284
978.789
978.321
977.881
977.467
977.077
976.711
976.368
976.046
975.744
975.461
975.195
974.946
974.711
974.491
974.284
974.089
973.906
973.733
973.569
973.415
973.269
973.131
973
972.875
972.758
972.647
972.542
972.443
972.349
972.261
972.178
972.1
972.028
971.961
971.9
971.843
971.792
971.746
971.706
971.671
971.642
971.618
971.6
971.587
971.58
971.577
971.581
971.589
971.601
971.619
971.64
971.666
971.695
971.727
971.761
971.798
971.836
971.875
971.915
971.956
971.996
972.035
972.073
972.11
972.145
972.179
972.211
972.241
972.27
972.297
972.325
972.352
972.38
972.41
972.443
972.48
972.522
972.571
972.627
972.693
972.769
972.858
972.959
973.076
973.208
973.356
973.522
973.705
973.907
974.127
974.365
974.621
974.894
975.184
975.49
975.81
976.144
976.489
976.846
977.211
977.585
977.964