# vtk DataFile Version 2.0
LBE mesh
ASCII
DATASET STRUCTURED_POINTS
DIMENSIONS 300 100 1
ASPECT_RATIO 1 1 1
ORIGIN 0 0 0
POINT_DATA 30000
SCALARS rho double 1
LOOKUP_TABLE default
1046.93
1015.25
1014.54
1021.02
1019.19
1015.29
1015.1
1015.62
1014.85
1014.06
1013.9
1013.74
1013.38
1013.07
1012.88
1012.67
1012.43
1012.22
1012.02
1011.82
1011.61
1011.4
1011.2
1010.99
1010.78
1010.56
1010.34
1010.11
1009.88
1009.64
1009.39
1009.14
1008.87
1008.6
1008.32
1008.02
1007.72
1007.4
1007.07
1006.72
1006.37
1006
1005.61
1005.21
1004.79
1004.35
1003.9
1003.43
1002.95
1002.45
1001.93
1001.39
1000.84
1000.27
999.687
999.087
998.471
997.842
997.2
996.545
995.88
995.206
994.524
993.836
993.142
992.446
991.748
991.051
990.356
989.665
988.98
988.303
987.635
986.978
986.334
985.704
985.088
984.49
983.909
983.347
982.805
982.283
981.781
981.301
980.843
980.406
979.991
979.597
979.226
978.875
978.546
978.238
977.95
977.682
977.434
977.205
976.993
976.8
976.623
976.463
976.319
976.19
976.075
975.975
975.887
975.813
975.75
975.699
975.658
975.627
975.606
975.594
975.59
975.594
975.605
975.623
975.647
975.676
975.711
975.75
975.793
975.839
975.888
975.94
975.994
976.05
976.107
976.164
976.221
976.278
976.335
976.39
976.444
976.497
976.547
976.594
976.639
976.68
976.718
976.752
976.783
976.809
976.831
976.847
976.859
976.865
976.866
976.862
976.852
976.836
976.814
976.787
976.752
976.712
976.665
976.612
976.552
976.485
976.411
976.329
976.241
976.144
976.041
975.929
975.81
975.684
975.551
975.411
975.264
975.112
974.954
974.792
974.627
974.46
974.293
974.127
973.963
973.804
973.652
973.508
973.374
973.253
973.146
973.056
972.984
972.932
972.9
972.891
972.906
972.945
973.008
973.096
973.209
973.346
973.506
973.69
973.895
974.119
974.363
974.623
974.898
975.187
975.486
975.795
976.111
976.432
976.755
977.081
977.406
977.729
978.048
978.363
978.672
978.973
979.267
979.552
979.828
980.094
980.349
980.594
980.828
981.052
981.265
981.467
981.659
981.84
982.012
982.174
982.327
982.471
982.607
982.736
982.856
982.97
983.077
983.178
983.272
983.36
983.444
983.521
983.593
983.66
983.721
983.776
983.826
983.87
983.907
983.938
983.963
983.98
983.989
983.99
983.982
983.965
983.938
983.902
983.855
983.797
983.728
983.648
983.556
983.452
983.336
983.208
983.068
982.917
982.753
982.578
982.392
982.196
981.989
981.771
981.545
981.31
981.066
980.814
980.554
980.287
980.012
979.73
979.441
979.14
978.829
978.515
978.183
977.816
977.451
977.089
976.621
976.081
975.69
975.173
974.084
973.316
973.368
971.348
967.518
969.466
970.211
947.051
1029.83
1026.29
1022.21
1017.01
1017.2
1017.37
1016.2
1015.05
1014.82
1014.57
1014.1
1013.71
1013.48
1013.23
1012.96
1012.71
1012.5
1012.28
1012.06
1011.85
1011.64
1011.43
1011.22
1011.01
1010.79
1010.57
1010.35
1010.12
1009.88
1009.64
1009.39
1009.13
1008.86
1008.59
1008.3
1008
1007.7
1007.38
1007.04
1006.7
1006.34
1005.96
1005.57
1005.17
1004.75
1004.31
1003.86
1003.39
1002.91
1002.41
1001.89
1001.35
1000.8
1000.23
999.641
999.04
998.425
997.797
997.155
996.502
995.838
995.165
994.484
993.798
993.106
992.412
991.717
991.022
990.33
989.642
988.96
988.285
987.621
986.967
986.326
985.699
985.087
984.491
983.914
983.355
982.815
982.296
981.797
981.319
980.863
980.429
980.016
979.624
979.254
978.906
978.578
978.271
977.984
977.718
977.47
977.242
977.031
976.838
976.662
976.502
976.358
976.229
976.115
976.014
975.927
975.852
975.789
975.737
975.696
975.665
975.644
975.631
975.627
975.631
975.642
975.659
975.683
975.712
975.746
975.785
975.828
975.874
975.923
975.975
976.029
976.084
976.141
976.198
976.255
976.312
976.369
976.424
976.478
976.531
976.581
976.628
976.672
976.714
976.752
976.786
976.817
976.842
976.864
976.88
976.891
976.898
976.898
976.894
976.883
976.867
976.845
976.817
976.782
976.741
976.694
976.64
976.58
976.512
976.438
976.356
976.267
976.171
976.067
975.956
975.837
975.712
975.579
975.44
975.294
975.142
974.985
974.824
974.66
974.494
974.328
974.162
973.999
973.84
973.688
973.544
973.41
973.288
973.181
973.089
973.016
972.961
972.928
972.917
972.928
972.964
973.024
973.11
973.219
973.353
973.51
973.69
973.892
974.114
974.354
974.612
974.884
975.17
975.467
975.774
976.087
976.406
976.729
977.053
977.377
977.699
978.018
978.332
978.641
978.942
979.236
979.522
979.798
980.064
980.32
980.566
980.801
981.025
981.239
981.441
981.634
981.816
981.989
982.152
982.306
982.451
982.588
982.717
982.839
982.953
983.06
983.161
983.257
983.346
983.429
983.507
983.579
983.646
983.708
983.763
983.813
983.857
983.896
983.927
983.951
983.969
983.978
983.98
983.973
983.956
983.931
983.895
983.849
983.792
983.725
983.645
983.555
983.452
983.337
983.21
983.071
982.92
982.757
982.583
982.398
982.201
981.994
981.777
981.55
981.314
981.069
980.816
980.554
980.284
980.007
979.721
979.426
979.124
978.81
978.479
978.141
977.789
977.397
976.976
976.565
976.081
975.453
974.866
974.339
973.282
971.933
971.358
970.166
966.003
962.231
960.339
1021.73
1026.55
1021.88
1017.59
1017.84
1017.56
1016.19
1015.25
1015.06
1014.72
1014.2
1013.83
1013.59
1013.32
1013.04
1012.79
1012.57
1012.34
1012.12
1011.9
1011.69
1011.47
1011.26
1011.04
1010.82
1010.6
1010.37
1010.14
1009.9
1009.65
1009.4
1009.14
1008.87
1008.59
1008.3
1008
1007.69
1007.37
1007.03
1006.69
1006.32
1005.95
1005.56
1005.15
1004.73
1004.29
1003.84
1003.37
1002.88
1002.38
1001.86
1001.32
1000.76
1000.19
999.606
999.004
998.388
997.758
997.116
996.462
995.797
995.124
994.444
993.757
993.065
992.371
991.676
990.982
990.29
989.603
988.923
988.249
987.586
986.934
986.295
985.67
985.06
984.467
983.892
983.335
982.798
982.281
981.785
981.31
980.856
980.424
980.013
979.624
979.256
978.91
978.584
978.28
977.995
977.73
977.484
977.257
977.047
976.856
976.681
976.522
976.379
976.251
976.137
976.037
975.951
975.876
975.814
975.763
975.722
975.692
975.671
975.659
975.655
975.659
975.669
975.687
975.711
975.741
975.775
975.814
975.857
975.903
975.953
976.005
976.059
976.115
976.172
976.229
976.287
976.344
976.401
976.457
976.512
976.564
976.615
976.663
976.707
976.749
976.787
976.822
976.852
976.878
976.9
976.916
976.928
976.934
976.935
976.93
976.919
976.903
976.881
976.852
976.817
976.776
976.729
976.675
976.614
976.546
976.471
976.389
976.301
976.204
976.101
975.99
975.871
975.746
975.613
975.474
975.328
975.177
975.02
974.859
974.695
974.528
974.361
974.195
974.031
973.87
973.716
973.57
973.434
973.31
973.199
973.105
973.028
972.971
972.934
972.919
972.928
972.961
973.018
973.1
973.207
973.338
973.493
973.671
973.871
974.091
974.33
974.586
974.858
975.143
975.44
975.746
976.06
976.379
976.702
977.026
977.35
977.673
977.993
978.308
978.617
978.92
979.215
979.501
979.778
980.045
980.302
980.548
980.784
981.009
981.224
981.428
981.621
981.804
981.978
982.141
982.296
982.441
982.579
982.708
982.83
982.944
983.052
983.154
983.249
983.339
983.422
983.501
983.573
983.64
983.702
983.759
983.809
983.854
983.893
983.925
983.95
983.968
983.979
983.981
983.975
983.961
983.936
983.902
983.857
983.802
983.735
983.657
983.568
983.466
983.352
983.226
983.089
982.938
982.776
982.603
982.417
982.221
982.014
981.797
981.569
981.332
981.086
980.831
980.567
980.296
980.017
979.728
979.429
979.124
978.809
978.474
978.124
977.776
977.394
976.941
976.51
976.107
975.461
974.686
974.329
973.652
971.683
970.806
971.61
967.335
961.834
965.924
1021.45
1020.19
1019.67
1020.86
1018.36
1016.27
1016.24
1016.16
1015.26
1014.57
1014.35
1014.1
1013.7
1013.38
1013.14
1012.9
1012.64
1012.41
1012.19
1011.97
1011.74
1011.53
1011.31
1011.09
1010.86
1010.64
1010.41
1010.17
1009.93
1009.68
1009.42
1009.16
1008.89
1008.61
1008.32
1008.02
1007.7
1007.38
1007.04
1006.69
1006.33
1005.95
1005.56
1005.15
1004.73
1004.29
1003.83
1003.36
1002.87
1002.36
1001.84
1001.3
1000.74
1000.17
999.579
998.975
998.356
997.723
997.078
996.421
995.754
995.078
994.394
993.705
993.011
992.315
991.618
990.922
990.229
989.541
988.859
988.186
987.522
986.871
986.232
985.608
984.999
984.407
983.834
983.279
982.744
982.229
981.736
981.264
980.813
980.384
979.976
979.59
979.225
978.882
978.56
978.258
977.976
977.713
977.47
977.245
977.039
976.849
976.676
976.52
976.379
976.253
976.141
976.042
975.957
975.884
975.823
975.773
975.734
975.705
975.684
975.673
975.67
975.675
975.686
975.705
975.73
975.76
975.795
975.835
975.879
975.926
975.976
976.029
976.084
976.14
976.198
976.256
976.314
976.372
976.43
976.487
976.542
976.595
976.646
976.695
976.74
976.783
976.822
976.857
976.888
976.914
976.936
976.953
976.965
976.971
976.972
976.968
976.958
976.941
976.919
976.89
976.856
976.815
976.767
976.713
976.652
976.584
976.51
976.428
976.339
976.243
976.139
976.028
975.91
975.784
975.652
975.512
975.366
975.214
975.056
974.894
974.728
974.56
974.39
974.221
974.054
973.891
973.734
973.584
973.444
973.315
973.2
973.102
973.02
972.958
972.918
972.899
972.904
972.934
972.988
973.067
973.172
973.302
973.455
973.633
973.832
974.052
974.291
974.548
974.821
975.107
975.405
975.713
976.028
976.349
976.674
977
977.326
977.651
977.972
978.289
978.6
978.904
979.201
979.489
979.767
980.035
980.293
980.541
980.778
981.004
981.219
981.424
981.618
981.801
981.975
982.139
982.294
982.44
982.577
982.707
982.829
982.944
983.052
983.153
983.249
983.338
983.422
983.501
983.574
983.642
983.704
983.761
983.812
983.858
983.898
983.932
983.958
983.978
983.99
983.994
983.989
983.976
983.954
983.921
983.878
983.824
983.759
983.683
983.595
983.495
983.382
983.258
983.12
982.971
982.81
982.637
982.452
982.255
982.048
981.83
981.602
981.364
981.117
980.861
980.596
980.323
980.042
979.753
979.455
979.144
978.825
978.501
978.153
977.777
977.409
977.021
976.525
976.024
975.623
974.98
974.012
973.504
973.051
971.121
969.446
969.49
968.577
966.816
1021.45
1019.27
1019.21
1019.11
1017.64
1017.24
1016.68
1015.84
1015.24
1014.96
1014.59
1014.15
1013.81
1013.55
1013.28
1013
1012.75
1012.52
1012.28
1012.05
1011.83
1011.61
1011.38
1011.16
1010.93
1010.7
1010.47
1010.23
1009.98
1009.73
1009.47
1009.21
1008.94
1008.65
1008.36
1008.06
1007.74
1007.41
1007.08
1006.72
1006.36
1005.98
1005.58
1005.17
1004.74
1004.3
1003.84
1003.37
1002.87
1002.36
1001.84
1001.29
1000.73
1000.15
999.557
998.948
998.324
997.687
997.036
996.374
995.701
995.02
994.332
993.637
992.938
992.237
991.536
990.836
990.139
989.448
988.764
988.088
987.422
986.769
986.129
985.505
984.897
984.306
983.734
983.18
982.647
982.135
981.645
981.176
980.729
980.303
979.899
979.517
979.156
978.817
978.499
978.201
977.923
977.664
977.425
977.204
977.001
976.815
976.646
976.493
976.355
976.231
976.122
976.026
975.944
975.873
975.814
975.766
975.729
975.702
975.683
975.673
975.672
975.678
975.691
975.711
975.737
975.768
975.805
975.845
975.89
975.938
975.99
976.043
976.099
976.157
976.215
976.274
976.333
976.393
976.451
976.509
976.565
976.619
976.671
976.721
976.768
976.811
976.851
976.887
976.919
976.947
976.969
976.987
976.999
977.007
977.008
977.004
976.995
976.979
976.957
976.929
976.895
976.854
976.807
976.753
976.692
976.624
976.55
976.468
976.38
976.283
976.18
976.069
975.95
975.824
975.691
975.55
975.403
975.249
975.09
974.925
974.757
974.585
974.412
974.24
974.068
973.9
973.738
973.583
973.437
973.303
973.183
973.079
972.993
972.926
972.881
972.858
972.859
972.886
972.938
973.015
973.118
973.247
973.401
973.578
973.778
974
974.241
974.5
974.775
975.064
975.365
975.676
975.994
976.318
976.645
976.974
977.304
977.631
977.956
978.275
978.588
978.895
979.193
979.483
979.763
980.033
980.292
980.541
980.779
981.006
981.222
981.427
981.622
981.806
981.98
982.144
982.299
982.445
982.583
982.712
982.834
982.949
983.057
983.159
983.255
983.344
983.429
983.508
983.582
983.65
983.714
983.772
983.824
983.871
983.912
983.947
983.975
983.996
984.01
984.016
984.014
984.003
983.982
983.952
983.911
983.859
983.796
983.722
983.635
983.537
983.426
983.302
983.167
983.018
982.858
982.685
982.5
982.304
982.097
981.878
981.65
981.412
981.164
980.908
980.643
980.37
980.088
979.798
979.502
979.196
978.874
978.548
978.217
977.847
977.455
977.093
976.675
976.112
975.639
975.272
974.416
973.418
973.29
972.469
970.23
969.901
969.937
968.173
1019.36
1019.39
1018.98
1017.51
1017.66
1017.52
1016.36
1015.74
1015.59
1015.18
1014.61
1014.26
1014.02
1013.71
1013.39
1013.13
1012.89
1012.64
1012.4
1012.17
1011.94
1011.71
1011.48
1011.26
1011.03
1010.79
1010.55
1010.31
1010.07
1009.81
1009.55
1009.28
1009.01
1008.72
1008.43
1008.12
1007.8
1007.47
1007.13
1006.78
1006.41
1006.03
1005.63
1005.21
1004.78
1004.34
1003.87
1003.39
1002.89
1002.38
1001.84
1001.29
1000.73
1000.14
999.541
998.924
998.293
997.647
996.989
996.319
995.639
994.95
994.253
993.55
992.844
992.136
991.427
990.72
990.018
989.321
988.631
987.951
987.282
986.626
985.984
985.358
984.749
984.158
983.587
983.035
982.504
981.995
981.507
981.042
980.599
980.178
979.778
979.401
979.045
978.712
978.398
978.106
977.833
977.58
977.346
977.13
976.932
976.751
976.586
976.438
976.304
976.185
976.079
975.988
975.908
975.841
975.785
975.74
975.706
975.681
975.665
975.658
975.659
975.667
975.682
975.703
975.731
975.764
975.802
975.844
975.89
975.939
975.992
976.046
976.103
976.162
976.222
976.281
976.342
976.402
976.462
976.521
976.578
976.633
976.686
976.737
976.785
976.829
976.87
976.907
976.941
976.969
976.993
977.012
977.026
977.035
977.037
977.035
977.026
977.011
976.99
976.963
976.929
976.889
976.843
976.789
976.729
976.662
976.588
976.506
976.418
976.322
976.218
976.107
975.988
975.861
975.726
975.585
975.435
975.28
975.117
974.95
974.778
974.602
974.425
974.247
974.07
973.897
973.728
973.567
973.415
973.275
973.149
973.039
972.947
972.875
972.825
972.798
972.797
972.82
972.87
972.946
973.049
973.178
973.333
973.512
973.714
973.939
974.182
974.445
974.724
975.017
975.321
975.636
975.958
976.286
976.618
976.951
977.284
977.615
977.942
978.265
978.581
978.89
979.191
979.482
979.764
980.036
980.297
980.547
980.786
981.014
981.23
981.436
981.631
981.816
981.99
982.154
982.309
982.455
982.593
982.723
982.845
982.96
983.068
983.17
983.266
983.356
983.441
983.521
983.595
983.665
983.729
983.789
983.842
983.891
983.933
983.97
984
984.023
984.04
984.048
984.048
984.039
984.021
983.993
983.954
983.905
983.845
983.773
983.688
983.592
983.483
983.361
983.226
983.079
982.92
982.748
982.564
982.368
982.161
981.943
981.714
981.476
981.229
980.973
980.708
980.436
980.157
979.869
979.572
979.272
978.961
978.63
978.297
977.967
977.588
977.169
976.812
976.408
975.784
975.266
974.974
974.135
973.019
972.764
972.288
970.914
970.023
969.952
1018.31
1018.71
1018.24
1017.61
1017.43
1016.7
1016.35
1016.11
1015.56
1015.05
1014.77
1014.5
1014.13
1013.8
1013.55
1013.3
1013.03
1012.77
1012.54
1012.31
1012.07
1011.84
1011.61
1011.38
1011.15
1010.91
1010.67
1010.43
1010.18
1009.92
1009.66
1009.39
1009.11
1008.82
1008.52
1008.21
1007.89
1007.56
1007.22
1006.86
1006.49
1006.1
1005.7
1005.28
1004.84
1004.39
1003.92
1003.43
1002.93
1002.41
1001.87
1001.31
1000.73
1000.14
999.529
998.903
998.261
997.605
996.937
996.256
995.565
994.865
994.157
993.444
992.727
992.009
991.291
990.575
989.863
989.158
988.462
987.775
987.101
986.44
985.795
985.166
984.556
983.964
983.393
982.842
982.314
981.807
981.323
980.862
980.423
980.007
979.613
979.242
978.892
978.565
978.258
977.972
977.706
977.459
977.232
977.023
976.831
976.656
976.497
976.354
976.226
976.112
976.012
975.925
975.85
975.787
975.736
975.695
975.664
975.643
975.63
975.625
975.629
975.64
975.657
975.681
975.711
975.746
975.785
975.829
975.876
975.927
975.98
976.036
976.094
976.153
976.214
976.275
976.336
976.397
976.458
976.517
976.575
976.631
976.685
976.737
976.786
976.832
976.874
976.913
976.947
976.977
977.003
977.023
977.039
977.049
977.053
977.052
977.045
977.032
977.012
976.987
976.955
976.916
976.87
976.818
976.759
976.692
976.618
976.538
976.449
976.353
976.249
976.138
976.018
975.89
975.754
975.611
975.459
975.301
975.136
974.964
974.788
974.608
974.425
974.242
974.059
973.879
973.704
973.536
973.378
973.231
973.099
972.983
972.886
972.809
972.755
972.724
972.72
972.742
972.79
972.866
972.97
973.1
973.257
973.438
973.644
973.872
974.12
974.387
974.67
974.967
975.277
975.596
975.923
976.256
976.592
976.929
977.266
977.601
977.932
978.258
978.577
978.889
979.192
979.486
979.77
980.043
980.305
980.557
980.797
981.025
981.242
981.448
981.644
981.829
982.003
982.167
982.323
982.469
982.606
982.736
982.858
982.973
983.082
983.184
983.281
983.372
983.457
983.538
983.613
983.685
983.75
983.811
983.867
983.917
983.962
984.001
984.033
984.059
984.077
984.088
984.091
984.084
984.069
984.044
984.008
983.962
983.904
983.835
983.753
983.659
983.552
983.432
983.299
983.154
982.995
982.825
982.642
982.446
982.24
982.023
981.796
981.559
981.312
981.058
980.796
980.525
980.248
979.966
979.673
979.373
979.073
978.76
978.424
978.093
977.768
977.372
976.95
976.62
976.188
975.529
975.103
974.787
973.851
973.052
972.813
971.994
971.144
970.911
1018.04
1017.75
1017.52
1017.66
1017.04
1016.47
1016.38
1015.96
1015.47
1015.19
1014.92
1014.54
1014.21
1013.97
1013.71
1013.42
1013.16
1012.93
1012.69
1012.45
1012.22
1011.99
1011.76
1011.52
1011.29
1011.05
1010.81
1010.56
1010.31
1010.05
1009.79
1009.52
1009.23
1008.94
1008.64
1008.33
1008.01
1007.67
1007.33
1006.96
1006.59
1006.19
1005.79
1005.36
1004.92
1004.46
1003.99
1003.49
1002.98
1002.45
1001.9
1001.33
1000.75
1000.14
999.521
998.883
998.229
997.561
996.879
996.185
995.48
994.766
994.045
993.319
992.589
991.857
991.127
990.399
989.677
988.962
988.255
987.561
986.879
986.213
985.562
984.93
984.317
983.724
983.153
982.604
982.077
981.573
981.093
980.635
980.202
979.792
979.405
979.04
978.698
978.378
978.078
977.8
977.542
977.303
977.083
976.882
976.697
976.53
976.378
976.242
976.121
976.013
975.919
975.838
975.77
975.712
975.666
975.629
975.603
975.586
975.577
975.577
975.583
975.597
975.618
975.644
975.676
975.713
975.754
975.799
975.848
975.9
975.954
976.011
976.07
976.129
976.191
976.252
976.314
976.375
976.436
976.496
976.554
976.611
976.666
976.718
976.768
976.815
976.858
976.897
976.933
976.965
976.992
977.014
977.031
977.043
977.05
977.051
977.046
977.035
977.017
976.994
976.963
976.927
976.883
976.832
976.774
976.709
976.636
976.556
976.468
976.373
976.269
976.157
976.037
975.908
975.77
975.625
975.471
975.31
975.141
974.966
974.785
974.6
974.412
974.223
974.034
973.848
973.667
973.492
973.328
973.175
973.037
972.915
972.813
972.732
972.674
972.642
972.635
972.656
972.704
972.781
972.886
973.018
973.178
973.363
973.572
973.804
974.057
974.329
974.617
974.92
975.235
975.56
975.892
976.229
976.57
976.912
977.253
977.591
977.926
978.255
978.577
978.891
979.197
979.492
979.778
980.053
980.317
980.569
980.809
981.039
981.256
981.463
981.658
981.843
982.017
982.182
982.337
982.483
982.621
982.751
982.873
982.989
983.098
983.201
983.298
983.39
983.477
983.559
983.636
983.708
983.776
983.839
983.897
983.949
983.996
984.038
984.072
984.101
984.122
984.136
984.142
984.139
984.127
984.105
984.072
984.029
983.974
983.907
983.828
983.737
983.632
983.515
983.384
983.241
983.084
982.915
982.734
982.541
982.336
982.12
981.894
981.659
981.415
981.163
980.904
980.638
980.364
980.086
979.804
979.511
979.211
978.916
978.607
978.266
977.942
977.634
977.23
976.796
976.5
976.086
975.407
974.985
974.697
973.93
973.159
972.823
972.364
971.542
1017.58
1017.39
1017.27
1017.09
1016.71
1016.58
1016.18
1015.75
1015.55
1015.27
1014.89
1014.59
1014.36
1014.09
1013.8
1013.55
1013.32
1013.08
1012.83
1012.6
1012.37
1012.14
1011.91
1011.68
1011.44
1011.21
1010.96
1010.72
1010.46
1010.21
1009.94
1009.67
1009.38
1009.09
1008.79
1008.47
1008.15
1007.81
1007.46
1007.09
1006.71
1006.31
1005.9
1005.47
1005.02
1004.56
1004.07
1003.57
1003.05
1002.51
1001.95
1001.37
1000.77
1000.15
999.519
998.866
998.198
997.514
996.816
996.106
995.385
994.655
993.917
993.174
992.429
991.682
990.936
990.194
989.459
988.731
988.014
987.309
986.619
985.945
985.289
984.652
984.035
983.441
982.869
982.32
981.795
981.295
980.818
980.366
979.939
979.535
979.155
978.799
978.464
978.152
977.862
977.592
977.343
977.113
976.902
976.709
976.534
976.375
976.232
976.103
975.99
975.89
975.803
975.729
975.667
975.616
975.576
975.545
975.523
975.511
975.507
975.511
975.522
975.539
975.563
975.592
975.626
975.665
975.708
975.755
975.805
975.858
975.914
975.971
976.03
976.09
976.151
976.212
976.274
976.335
976.395
976.455
976.513
976.57
976.624
976.677
976.727
976.773
976.817
976.858
976.894
976.927
976.955
976.979
976.998
977.012
977.021
977.024
977.021
977.013
976.998
976.977
976.95
976.915
976.874
976.825
976.769
976.706
976.636
976.557
976.47
976.375
976.272
976.16
976.039
975.909
975.771
975.624
975.468
975.304
975.132
974.953
974.768
974.578
974.386
974.191
973.996
973.805
973.617
973.438
973.267
973.109
972.966
972.84
972.734
972.65
972.59
972.555
972.548
972.569
972.618
972.696
972.803
972.939
973.101
973.291
973.505
973.741
974
974.277
974.57
974.878
975.199
975.529
975.866
976.208
976.553
976.899
977.244
977.586
977.924
978.256
978.58
978.897
979.204
979.501
979.789
980.065
980.329
980.582
980.823
981.052
981.271
981.477
981.672
981.857
982.031
982.196
982.351
982.497
982.636
982.766
982.889
983.005
983.115
983.219
983.318
983.411
983.499
983.583
983.662
983.736
983.806
983.871
983.931
983.986
984.036
984.08
984.118
984.149
984.174
984.191
984.2
984.2
984.191
984.173
984.144
984.104
984.052
983.989
983.913
983.825
983.723
983.609
983.481
983.34
983.186
983.02
982.84
982.649
982.447
982.234
982.011
981.779
981.538
981.29
981.035
980.774
980.507
980.234
979.959
979.681
979.391
979.097
978.812
978.51
978.172
977.866
977.571
977.163
976.758
976.484
976.046
975.452
975.082
974.676
974.016
973.511
973.025
972.342
1017.06
1017.1
1017.01
1016.67
1016.57
1016.4
1016
1015.77
1015.54
1015.2
1014.93
1014.7
1014.43
1014.15
1013.92
1013.69
1013.45
1013.21
1012.98
1012.76
1012.53
1012.3
1012.07
1011.84
1011.61
1011.37
1011.13
1010.88
1010.63
1010.37
1010.11
1009.83
1009.55
1009.25
1008.95
1008.63
1008.31
1007.96
1007.61
1007.24
1006.85
1006.45
1006.03
1005.6
1005.14
1004.67
1004.18
1003.66
1003.13
1002.58
1002.01
1001.42
1000.8
1000.17
999.521
998.853
998.167
997.466
996.75
996.021
995.281
994.531
993.775
993.013
992.248
991.483
990.72
989.962
989.21
988.468
987.738
987.021
986.321
985.638
984.974
984.332
983.712
983.115
982.542
981.995
981.472
980.975
980.503
980.057
979.635
979.239
978.867
978.519
978.194
977.892
977.611
977.352
977.112
976.892
976.691
976.508
976.342
976.193
976.059
975.94
975.835
975.744
975.665
975.599
975.544
975.5
975.466
975.442
975.427
975.421
975.422
975.43
975.446
975.467
975.494
975.527
975.564
975.605
975.65
975.699
975.75
975.804
975.859
975.917
975.976
976.036
976.096
976.157
976.217
976.277
976.336
976.394
976.452
976.507
976.56
976.612
976.661
976.707
976.75
976.79
976.827
976.86
976.889
976.914
976.934
976.95
976.961
976.966
976.966
976.96
976.948
976.931
976.906
976.875
976.837
976.792
976.739
976.678
976.61
976.534
976.449
976.355
976.253
976.142
976.021
975.891
975.752
975.604
975.446
975.28
975.106
974.924
974.736
974.542
974.345
974.147
973.948
973.752
973.56
973.375
973.201
973.038
972.892
972.763
972.654
972.568
972.507
972.472
972.465
972.486
972.537
972.618
972.728
972.867
973.034
973.228
973.446
973.688
973.952
974.234
974.533
974.846
975.172
975.507
975.848
976.195
976.544
976.894
977.242
977.587
977.928
978.262
978.588
978.906
979.215
979.513
979.801
980.078
980.342
980.595
980.836
981.066
981.284
981.49
981.685
981.87
982.044
982.208
982.363
982.509
982.648
982.779
982.902
983.019
983.13
983.235
983.336
983.431
983.521
983.607
983.688
983.766
983.838
983.906
983.969
984.027
984.08
984.127
984.168
984.203
984.231
984.251
984.264
984.268
984.263
984.248
984.223
984.186
984.139
984.079
984.007
983.922
983.824
983.713
983.589
983.452
983.301
983.137
982.961
982.773
982.574
982.365
982.145
981.917
981.681
981.438
981.189
980.934
980.676
980.413
980.144
979.876
979.608
979.325
979.04
978.774
978.484
978.152
977.869
977.597
977.196
976.813
976.558
976.151
975.609
975.241
974.859
974.285
973.727
973.149
1016.76
1016.77
1016.67
1016.54
1016.4
1016.12
1015.94
1015.76
1015.44
1015.19
1015
1014.74
1014.47
1014.25
1014.03
1013.79
1013.56
1013.34
1013.12
1012.9
1012.67
1012.45
1012.23
1012
1011.77
1011.54
1011.3
1011.06
1010.81
1010.55
1010.28
1010.01
1009.73
1009.43
1009.13
1008.81
1008.48
1008.13
1007.78
1007.4
1007.01
1006.61
1006.18
1005.74
1005.28
1004.8
1004.29
1003.77
1003.23
1002.66
1002.08
1001.47
1000.84
1000.2
999.529
998.842
998.138
997.416
996.68
995.93
995.168
994.397
993.618
992.835
992.049
991.263
990.479
989.702
988.932
988.174
987.428
986.698
985.985
985.292
984.621
983.973
983.348
982.749
982.175
981.628
981.108
980.615
980.148
979.708
979.294
978.907
978.544
978.205
977.89
977.598
977.329
977.08
976.852
976.643
976.453
976.281
976.125
975.986
975.863
975.754
975.659
975.577
975.507
975.45
975.403
975.367
975.341
975.323
975.315
975.315
975.322
975.336
975.356
975.382
975.414
975.449
975.489
975.533
975.58
975.63
975.683
975.737
975.793
975.851
975.909
975.968
976.027
976.086
976.144
976.202
976.259
976.315
976.37
976.423
976.474
976.523
976.57
976.614
976.656
976.695
976.731
976.763
976.792
976.817
976.838
976.854
976.866
976.874
976.876
976.873
976.864
976.849
976.828
976.801
976.766
976.725
976.676
976.619
976.554
976.481
976.399
976.308
976.208
976.098
975.979
975.85
975.711
975.563
975.405
975.238
975.062
974.879
974.689
974.493
974.293
974.092
973.89
973.691
973.496
973.309
973.132
972.967
972.819
972.688
972.579
972.492
972.431
972.397
972.391
972.415
972.468
972.552
972.666
972.809
972.98
973.179
973.402
973.649
973.917
974.205
974.509
974.827
975.157
975.496
975.842
976.193
976.545
976.898
977.248
977.596
977.938
978.273
978.601
978.92
979.229
979.527
979.815
980.092
980.356
980.609
980.849
981.078
981.295
981.501
981.695
981.879
982.052
982.216
982.371
982.518
982.656
982.788
982.912
983.03
983.142
983.249
983.352
983.449
983.542
983.631
983.715
983.795
983.87
983.942
984.008
984.07
984.126
984.177
984.222
984.261
984.292
984.317
984.333
984.341
984.34
984.329
984.308
984.276
984.232
984.177
984.109
984.028
983.935
983.828
983.707
983.574
983.427
983.267
983.095
982.912
982.717
982.511
982.297
982.075
981.844
981.608
981.367
981.12
980.869
980.618
980.363
980.103
979.848
979.594
979.324
979.056
978.811
978.536
978.224
977.969
977.708
977.339
977.003
976.732
976.34
975.906
975.514
975.072
974.585
973.927
1016.55
1016.49
1016.42
1016.38
1016.2
1016
1015.87
1015.64
1015.41
1015.23
1014.99
1014.75
1014.55
1014.34
1014.1
1013.89
1013.68
1013.47
1013.25
1013.03
1012.82
1012.61
1012.39
1012.17
1011.94
1011.71
1011.48
1011.23
1010.99
1010.73
1010.47
1010.19
1009.91
1009.62
1009.31
1008.99
1008.66
1008.32
1007.96
1007.58
1007.19
1006.77
1006.34
1005.89
1005.43
1004.94
1004.42
1003.89
1003.34
1002.76
1002.16
1001.54
1000.89
1000.23
999.541
998.834
998.109
997.365
996.606
995.832
995.047
994.251
993.448
992.64
991.829
991.02
990.214
989.415
988.625
987.847
987.085
986.339
985.613
984.91
984.229
983.574
982.944
982.342
981.768
981.222
980.705
980.216
979.755
979.323
978.917
978.539
978.186
977.858
977.555
977.274
977.017
976.78
976.564
976.368
976.19
976.029
975.885
975.758
975.646
975.547
975.463
975.391
975.331
975.283
975.245
975.218
975.2
975.191
975.19
975.197
975.21
975.23
975.256
975.286
975.322
975.361
975.405
975.452
975.501
975.552
975.606
975.661
975.717
975.774
975.831
975.888
975.946
976.002
976.058
976.113
976.167
976.219
976.27
976.32
976.367
976.413
976.456
976.497
976.536
976.572
976.605
976.635
976.663
976.686
976.707
976.723
976.736
976.744
976.748
976.747
976.741
976.729
976.711
976.688
976.657
976.62
976.575
976.523
976.463
976.394
976.316
976.229
976.133
976.026
975.909
975.783
975.646
975.499
975.342
975.176
975.001
974.817
974.627
974.431
974.231
974.028
973.826
973.626
973.431
973.242
973.065
972.901
972.752
972.622
972.513
972.428
972.369
972.337
972.334
972.36
972.417
972.505
972.623
972.77
972.946
973.149
973.378
973.629
973.902
974.194
974.503
974.825
975.159
975.502
975.851
976.204
976.558
976.913
977.265
977.614
977.957
978.292
978.62
978.939
979.247
979.545
979.832
980.107
980.371
980.622
980.861
981.089
981.304
981.508
981.701
981.884
982.057
982.22
982.375
982.521
982.66
982.792
982.917
983.036
983.15
983.26
983.364
983.464
983.56
983.652
983.74
983.823
983.903
983.978
984.048
984.114
984.174
984.229
984.278
984.321
984.357
984.385
984.406
984.418
984.421
984.414
984.398
984.37
984.331
984.28
984.217
984.141
984.052
983.95
983.835
983.706
983.564
983.409
983.242
983.064
982.874
982.675
982.467
982.251
982.028
981.799
981.566
981.331
981.091
980.849
980.61
980.368
980.122
979.885
979.651
979.398
979.152
978.934
978.679
978.395
978.169
977.928
977.594
977.294
977.029
976.67
976.254
975.868
975.438
974.761
1016.32
1016.3
1016.26
1016.16
1016.04
1015.94
1015.76
1015.56
1015.41
1015.21
1014.99
1014.8
1014.61
1014.39
1014.19
1013.99
1013.79
1013.58
1013.38
1013.17
1012.96
1012.75
1012.54
1012.33
1012.11
1011.88
1011.65
1011.41
1011.17
1010.92
1010.66
1010.39
1010.1
1009.81
1009.51
1009.19
1008.86
1008.51
1008.15
1007.77
1007.37
1006.95
1006.52
1006.06
1005.59
1005.09
1004.57
1004.02
1003.46
1002.87
1002.25
1001.61
1000.95
1000.27
999.558
998.83
998.081
997.313
996.528
995.728
994.916
994.093
993.263
992.427
991.59
990.754
989.923
989.1
988.287
987.489
986.707
985.944
985.204
984.488
983.797
983.134
982.5
981.895
981.32
980.777
980.262
979.779
979.326
978.901
978.505
978.137
977.796
977.48
977.189
976.922
976.677
976.454
976.251
976.068
975.903
975.755
975.624
975.509
975.409
975.322
975.249
975.188
975.139
975.101
975.073
975.056
975.046
975.046
975.053
975.067
975.087
975.113
975.145
975.181
975.221
975.265
975.312
975.362
975.414
975.467
975.521
975.577
975.633
975.689
975.745
975.8
975.855
975.908
975.961
976.012
976.062
976.11
976.156
976.2
976.243
976.284
976.322
976.358
976.392
976.424
976.453
976.479
976.503
976.524
976.543
976.557
976.569
976.577
976.582
976.582
976.578
976.568
976.554
976.533
976.507
976.475
976.435
976.388
976.333
976.269
976.197
976.115
976.024
975.922
975.81
975.688
975.555
975.412
975.258
975.095
974.922
974.741
974.553
974.359
974.16
973.959
973.758
973.56