# vtk DataFile Version 2.0
LBE mesh
ASCII
DATASET STRUCTURED_POINTS
DIMENSIONS 300 100 1
ASPECT_RATIO 1 1 1
ORIGIN 0 0 0
POINT_DATA 30000
SCALARS rho double 1
LOOKUP_TABLE default
1045.93
1014.1
1013.36
1019.84
1017.99
1014.05
1013.82
1014.32
1013.52
1012.7
1012.51
1012.32
1011.93
1011.6
1011.37
1011.13
1010.86
1010.62
1010.39
1010.15
1009.91
1009.67
1009.43
1009.19
1008.94
1008.69
1008.43
1008.17
1007.89
1007.62
1007.33
1007.03
1006.73
1006.41
1006.08
1005.74
1005.39
1005.02
1004.65
1004.25
1003.84
1003.42
1002.98
1002.53
1002.05
1001.56
1001.06
1000.53
999.991
999.431
998.854
998.259
997.647
997.018
996.373
995.713
995.038
994.349
993.647
992.934
992.211
991.478
990.739
989.994
989.245
988.494
987.744
986.995
986.25
985.51
984.778
984.056
983.345
982.647
981.964
981.297
980.648
980.018
979.409
978.82
978.253
977.709
977.188
976.692
976.219
975.77
975.346
974.946
974.571
974.219
973.891
973.586
973.303
973.044
972.805
972.589
972.393
972.217
972.06
971.923
971.804
971.703
971.619
971.552
971.501
971.466
971.445
971.44
971.448
971.471
971.506
971.555
971.616
971.69
971.775
971.871
971.979
972.097
972.226
972.365
972.513
972.671
972.839
973.015
973.201
973.394
973.595
973.805
974.022
974.246
974.477
974.714
974.958
975.207
975.462
975.721
975.985
976.253
976.523
976.798
977.074
977.352
977.632
977.912
978.192
978.472
978.75
979.026
979.3
979.571
979.838
980.1
980.356
980.607
980.852
981.089
981.319
981.541
981.754
981.958
982.153
982.337
982.511
982.675
982.828
982.969
983.1
983.22
983.328
983.424
983.508
983.581
983.643
983.693
983.731
983.757
983.772
983.775
983.765
983.744
983.71
983.663
983.603
983.529
983.441
983.339
983.222
983.089
982.941
982.777
982.596
982.4
982.189
981.961
981.72
981.464
981.196
980.917
980.628
980.331
980.028
979.722
979.414
979.108
978.805
978.51
978.224
977.95
977.692
977.451
977.231
977.034
976.861
976.715
976.597
976.508
976.45
976.423
976.426
976.46
976.524
976.617
976.739
976.886
977.059
977.254
977.47
977.705
977.955
978.22
978.495
978.779
979.07
979.364
979.661
979.958
980.252
980.543
980.828
981.106
981.376
981.636
981.886
982.126
982.354
982.57
982.774
982.967
983.147
983.316
983.474
983.621
983.759
983.887
984.007
984.119
984.224
984.323
984.417
984.505
984.59
984.672
984.751
984.828
984.903
984.976
985.047
985.117
985.185
985.251
985.314
985.375
985.431
985.483
985.53
985.57
985.603
985.626
985.638
985.639
985.627
985.596
985.547
985.485
985.396
985.262
985.119
984.972
984.706
984.359
984.163
983.833
982.904
982.311
982.578
980.691
976.88
979.076
980.011
955.888
1028.77
1025.18
1021.06
1015.82
1015.99
1016.13
1014.93
1013.74
1013.49
1013.21
1012.71
1012.29
1012.03
1011.75
1011.45
1011.17
1010.93
1010.68
1010.43
1010.18
1009.94
1009.7
1009.45
1009.21
1008.95
1008.7
1008.44
1008.17
1007.9
1007.61
1007.32
1007.02
1006.72
1006.4
1006.07
1005.72
1005.37
1005
1004.62
1004.23
1003.82
1003.39
1002.95
1002.49
1002.02
1001.53
1001.02
1000.49
999.949
999.388
998.81
998.215
997.602
996.973
996.328
995.668
994.993
994.305
993.604
992.892
992.169
991.439
990.701
989.958
989.211
988.463
987.715
986.968
986.226
985.49
984.761
984.042
983.334
982.64
981.96
981.297
980.651
980.025
979.418
978.833
978.269
977.728
977.21
976.716
976.246
975.8
975.379
974.981
974.607
974.257
973.931
973.627
973.346
973.088
972.851
972.635
972.44
972.265
972.109
971.972
971.854
971.753
971.669
971.602
971.551
971.516
971.495
971.489
971.498
971.52
971.555
971.603
971.664
971.736
971.821
971.917
972.023
972.141
972.268
972.407
972.554
972.711
972.878
973.053
973.237
973.43
973.63
973.838
974.054
974.277
974.507
974.743
974.985
975.233
975.486
975.745
976.007
976.274
976.544
976.817
977.092
977.369
977.648
977.927
978.206
978.485
978.763
979.038
979.311
979.581
979.847
980.108
980.365
980.615
980.859
981.097
981.326
981.548
981.761
981.965
982.159
982.343
982.517
982.681
982.834
982.976
983.107
983.226
983.334
983.43
983.514
983.588
983.649
983.698
983.736
983.763
983.777
983.779
983.77
983.748
983.715
983.668
983.609
983.535
983.448
983.347
983.231
983.099
982.953
982.79
982.612
982.418
982.209
981.984
981.745
981.492
981.227
980.95
980.663
980.369
980.068
979.763
979.456
979.151
978.849
978.554
978.268
977.994
977.734
977.493
977.271
977.071
976.896
976.747
976.626
976.534
976.472
976.441
976.44
976.47
976.531
976.62
976.738
976.882
977.051
977.243
977.456
977.687
977.935
978.197
978.471
978.753
979.042
979.336
979.631
979.927
980.221
980.511
980.797
981.075
981.346
981.607
981.858
982.099
982.328
982.546
982.751
982.945
983.127
983.298
983.457
983.606
983.745
983.874
983.995
984.108
984.214
984.313
984.407
984.497
984.582
984.663
984.742
984.818
984.893
984.965
985.035
985.104
985.171
985.236
985.298
985.357
985.411
985.462
985.507
985.545
985.574
985.596
985.606
985.603
985.586
985.555
985.504
985.427
985.334
985.216
985.049
984.843
984.64
984.353
983.911
983.511
983.168
982.273
981.074
980.69
979.606
975.451
971.656
969.589
1020.63
1025.44
1020.74
1016.4
1016.63
1016.32
1014.92
1013.95
1013.73
1013.36
1012.82
1012.41
1012.14
1011.84
1011.53
1011.25
1011
1010.74
1010.48
1010.23
1009.99
1009.74
1009.49
1009.24
1008.98
1008.72
1008.46
1008.19
1007.91
1007.63
1007.33
1007.03
1006.72
1006.4
1006.07
1005.72
1005.37
1005
1004.61
1004.22
1003.8
1003.38
1002.93
1002.47
1002
1001.51
1001
1000.47
999.924
999.362
998.782
998.185
997.572
996.941
996.295
995.633
994.958
994.268
993.566
992.853
992.13
991.399
990.661
989.918
989.171
988.423
987.675
986.93
986.188
985.453
984.725
984.008
983.302
982.609
981.931
981.27
980.627
980.003
979.398
978.816
978.255
977.716
977.201
976.71
976.242
975.799
975.38
974.985
974.613
974.266
973.941
973.64
973.361
973.105
972.87
972.655
972.462
972.288
972.133
971.998
971.88
971.78
971.697
971.631
971.581
971.546
971.526
971.52
971.529
971.551
971.586
971.635
971.695
971.768
971.852
971.948
972.054
972.171
972.298
972.436
972.583
972.74
972.906
973.081
973.264
973.456
973.656
973.863
974.078
974.3
974.529
974.765
975.006
975.254
975.506
975.764
976.025
976.291
976.561
976.833
977.108
977.385
977.663
977.942
978.221
978.499
978.777
979.052
979.325
979.595
979.861
980.122
980.379
980.63
980.874
981.112
981.341
981.563
981.776
981.98
982.175
982.36
982.534
982.698
982.852
982.993
983.124
983.244
983.351
983.448
983.532
983.605
983.667
983.716
983.754
983.78
983.794
983.797
983.788
983.766
983.732
983.687
983.627
983.555
983.469
983.369
983.254
983.125
982.98
982.819
982.643
982.451
982.243
982.021
981.783
981.532
981.268
980.992
980.706
980.411
980.11
979.804
979.497
979.19
978.886
978.588
978.299
978.022
977.759
977.513
977.287
977.083
976.904
976.751
976.625
976.529
976.464
976.429
976.425
976.451
976.508
976.595
976.711
976.853
977.02
977.211
977.423
977.654
977.901
978.163
978.437
978.72
979.01
979.304
979.601
979.898
980.194
980.486
980.772
981.052
981.325
981.588
981.841
982.083
982.314
982.534
982.741
982.936
983.119
983.291
983.451
983.601
983.741
983.871
983.992
984.105
984.211
984.31
984.404
984.493
984.578
984.659
984.737
984.813
984.886
984.958
985.028
985.096
985.162
985.226
985.287
985.344
985.399
985.448
985.492
985.529
985.558
985.578
985.588
985.584
985.565
985.532
985.483
985.404
985.3
985.189
985.035
984.796
984.574
984.374
983.915
983.318
983.156
982.663
980.811
980.104
981.147
976.849
971.173
975.357
1020.36
1019.07
1018.52
1019.68
1017.15
1015.03
1014.97
1014.87
1013.94
1013.22
1012.97
1012.68
1012.26
1011.9
1011.64
1011.37
1011.08
1010.81
1010.56
1010.3
1010.05
1009.79
1009.54
1009.29
1009.03
1008.77
1008.5
1008.22
1007.94
1007.66
1007.36
1007.06
1006.75
1006.42
1006.09
1005.74
1005.38
1005.01
1004.63
1004.23
1003.81
1003.38
1002.94
1002.48
1002
1001.5
1000.99
1000.46
999.916
999.351
998.769
998.169
997.552
996.919
996.27
995.606
994.927
994.234
993.529
992.813
992.087
991.353
990.612
989.866
989.117
988.367
987.617
986.869
986.126
985.389
984.661
983.943
983.236
982.544
981.867
981.206
980.564
979.941
979.339
978.758
978.199
977.664
977.151
976.662
976.198
975.758
975.342
974.949
974.581
974.237
973.916
973.617
973.342
973.088
972.855
972.644
972.452
972.281
972.128
971.995
971.879
971.781
971.7
971.635
971.586
971.552
971.533
971.529
971.539
971.562
971.598
971.647
971.708
971.781
971.866
971.962
972.069
972.186
972.314
972.452
972.599
972.756
972.922
973.097
973.28
973.472
973.672
973.879
974.094
974.316
974.545
974.78
975.022
975.269
975.521
975.779
976.04
976.306
976.576
976.848
977.123
977.4
977.679
977.958
978.237
978.516
978.794
979.07
979.343
979.614
979.88
980.142
980.4
980.651
980.896
981.134
981.365
981.587
981.801
982.006
982.201
982.387
982.562
982.726
982.88
983.022
983.153
983.273
983.381
983.477
983.562
983.635
983.696
983.745
983.783
983.809
983.824
983.827
983.817
983.796
983.763
983.718
983.66
983.588
983.504
983.405
983.292
983.164
983.021
982.862
982.687
982.496
982.29
982.068
981.832
981.581
981.316
981.039
980.752
980.455
980.151
979.843
979.531
979.221
978.912
978.609
978.315
978.031
977.762
977.51
977.279
977.069
976.884
976.726
976.595
976.495
976.425
976.386
976.379
976.404
976.459
976.544
976.659
976.8
976.968
977.16
977.373
977.605
977.855
978.119
978.395
978.681
978.973
979.271
979.571
979.871
980.169
980.464
980.754
981.037
981.312
981.578
981.833
982.078
982.311
982.532
982.741
982.937
983.122
983.295
983.456
983.606
983.746
983.876
983.997
984.11
984.215
984.314
984.407
984.495
984.579
984.659
984.737
984.811
984.884
984.955
985.024
985.091
985.157
985.221
985.281
985.339
985.393
985.443
985.487
985.525
985.555
985.575
985.584
985.583
985.567
985.531
985.48
985.414
985.314
985.176
985.038
984.87
984.581
984.28
984.081
983.624
982.826
982.515
982.259
980.454
978.927
979.179
978.349
976.451
1020.35
1018.15
1018.06
1017.94
1016.44
1016.01
1015.42
1014.55
1013.92
1013.61
1013.21
1012.74
1012.37
1012.08
1011.78
1011.47
1011.19
1010.92
1010.66
1010.39
1010.14
1009.88
1009.62
1009.36
1009.1
1008.83
1008.56
1008.29
1008.01
1007.72
1007.42
1007.11
1006.8
1006.47
1006.13
1005.79
1005.42
1005.05
1004.66
1004.26
1003.85
1003.41
1002.97
1002.5
1002.02
1001.52
1001.01
1000.47
999.924
999.355
998.768
998.164
997.543
996.905
996.251
995.581
994.897
994.199
993.488
992.766
992.035
991.295
990.548
989.797
989.042
988.287
987.532
986.78
986.033
985.292
984.561
983.84
983.131
982.437
981.759
981.098
980.456
979.834
979.232
978.653
978.096
977.563
977.053
976.568
976.107
975.67
975.258
974.869
974.505
974.165
973.847
973.553
973.281
973.031
972.802
972.594
972.407
972.238
972.089
971.958
971.846
971.75
971.672
971.609
971.563
971.531
971.514
971.512
971.524
971.548
971.586
971.637
971.7
971.774
971.86
971.958
972.066
972.185
972.313
972.452
972.601
972.759
972.926
973.101
973.286
973.478
973.679
973.887
974.102
974.325
974.554
974.79
975.032
975.28
975.533
975.792
976.054
976.321
976.591
976.864
977.14
977.418
977.697
977.977
978.257
978.537
978.816
979.093
979.367
979.638
979.906
980.169
980.428
980.68
980.927
981.166
981.397
981.621
981.836
982.041
982.237
982.424
982.6
982.765
982.919
983.062
983.193
983.313
983.421
983.518
983.602
983.675
983.737
983.786
983.824
983.85
983.865
983.867
983.859
983.838
983.806
983.761
983.704
983.634
983.55
983.452
983.341
983.214
983.073
982.915
982.741
982.552
982.346
982.124
981.887
981.634
981.368
981.088
980.798
980.497
980.188
979.874
979.557
979.239
978.924
978.613
978.311
978.02
977.743
977.484
977.244
977.028
976.836
976.672
976.536
976.431
976.357
976.316
976.307
976.329
976.384
976.469
976.585
976.728
976.897
977.091
977.307
977.543
977.796
978.064
978.344
978.635
978.932
979.234
979.538
979.843
980.146
980.445
980.739
981.026
981.305
981.573
981.832
982.079
982.315
982.538
982.749
982.947
983.133
983.307
983.468
983.619
983.758
983.888
984.009
984.121
984.225
984.323
984.415
984.502
984.585
984.664
984.741
984.815
984.887
984.957
985.026
985.093
985.159
985.223
985.284
985.342
985.398
985.449
985.495
985.534
985.566
985.589
985.6
985.6
985.589
985.56
985.508
985.443
985.363
985.235
985.073
984.934
984.731
984.368
984.096
983.938
983.267
982.449
982.56
981.946
979.836
979.736
979.99
978.217
1018.26
1018.27
1017.84
1016.34
1016.46
1016.29
1015.1
1014.46
1014.27
1013.84
1013.24
1012.86
1012.59
1012.25
1011.9
1011.6
1011.34
1011.06
1010.78
1010.51
1010.26
1009.99
1009.73
1009.47
1009.2
1008.93
1008.66
1008.38
1008.1
1007.8
1007.5
1007.19
1006.88
1006.55
1006.21
1005.86
1005.49
1005.12
1004.73
1004.32
1003.9
1003.47
1003.02
1002.55
1002.07
1001.56
1001.04
1000.5
999.949
999.374
998.782
998.171
997.543
996.898
996.237
995.559
994.867
994.161
993.442
992.711
991.971
991.223
990.467
989.707
988.945
988.181
987.419
986.659
985.905
985.159
984.422
983.695
982.983
982.285
981.604
980.941
980.298
979.676
979.074
978.496
977.941
977.41
976.903
976.422
975.964
975.531
975.124
974.74
974.381
974.045
973.733
973.443
973.176
972.931
972.707
972.504
972.321
972.157
972.012
971.885
971.776
971.685
971.61
971.551
971.507
971.479
971.465
971.466
971.481
971.508
971.549
971.602
971.668
971.745
971.833
971.933
972.044
972.165
972.296
972.437
972.587
972.747
972.917
973.094
973.28
973.475
973.677
973.887
974.104
974.329
974.56
974.797
975.041
975.29
975.545
975.804
976.068
976.337
976.608
976.883
977.16
977.439
977.72
978.001
978.282
978.563
978.843
979.122
979.397
979.67
979.939
980.204
980.463
980.717
980.965
981.205
981.438
981.662
981.878
982.085
982.282
982.469
982.646
982.812
982.967
983.11
983.242
983.363
983.471
983.568
983.653
983.726
983.787
983.837
983.875
983.901
983.915
983.919
983.91
983.89
983.858
983.814
983.758
983.688
983.606
983.509
983.399
983.273
983.132
982.976
982.802
982.613
982.406
982.183
981.944
981.689
981.419
981.135
980.84
980.533
980.218
979.896
979.571
979.244
978.92
978.6
978.288
977.988
977.702
977.434
977.186
976.961
976.763
976.592
976.451
976.341
976.265
976.22
976.21
976.232
976.287
976.374
976.491
976.637
976.81
977.008
977.229
977.469
977.728
978.001
978.287
978.583
978.886
979.194
979.504
979.814
980.123
980.427
980.726
981.018
981.301
981.574
981.836
982.086
982.325
982.55
982.763
982.963
983.15
983.324
983.486
983.636
983.776
983.905
984.025
984.136
984.24
984.336
984.427
984.513
984.595
984.673
984.749
984.822
984.894
984.964
985.033
985.101
985.167
985.232
985.295
985.356
985.413
985.466
985.515
985.558
985.592
985.619
985.637
985.641
985.632
985.612
985.574
985.507
985.428
985.344
985.199
985.004
984.868
984.68
984.258
983.95
983.888
983.255
982.35
982.374
982.166
981.014
980.38
980.527
1017.21
1017.59
1017.1
1016.44
1016.24
1015.48
1015.1
1014.84
1014.26
1013.72
1013.41
1013.11
1012.71
1012.35
1012.07
1011.78
1011.48
1011.2
1010.93
1010.66
1010.4
1010.13
1009.87
1009.6
1009.33
1009.06
1008.78
1008.5
1008.21
1007.92
1007.62
1007.31
1006.99
1006.65
1006.31
1005.96
1005.59
1005.21
1004.82
1004.41
1003.99
1003.55
1003.09
1002.62
1002.13
1001.62
1001.1
1000.55
999.991
999.409
998.809
998.19
997.553
996.899
996.228
995.54
994.837
994.12
993.39
992.648
991.896
991.136
990.369
989.597
988.823
988.049
987.275
986.506
985.742
984.987
984.242
983.509
982.79
982.087
981.402
980.736
980.09
979.466
978.865
978.287
977.734
977.205
976.701
976.223
975.77
975.342
974.939
974.561
974.207
973.877
973.57
973.287
973.025
972.786
972.568
972.37
972.193
972.034
971.894
971.773
971.669
971.582
971.512
971.458
971.419
971.394
971.385
971.39
971.408
971.44
971.484
971.541
971.61
971.691
971.783
971.887
972.001
972.126
972.26
972.405
972.559
972.722
972.894
973.075
973.265
973.462
973.668
973.881
974.101
974.328
974.562
974.802
975.048
975.3
975.557
975.819
976.085
976.356
976.629
976.906
977.185
977.466
977.748
978.031
978.315
978.597
978.879
979.159
979.436
979.71
979.98
980.246
980.507
980.762
981.011
981.252
981.486
981.712
981.928
982.136
982.334
982.522
982.7
982.866
983.022
983.166
983.299
983.419
983.528
983.625
983.711
983.784
983.845
983.895
983.933
983.959
983.974
983.978
983.969
983.95
983.918
983.874
983.818
983.749
983.668
983.572
983.462
983.337
983.196
983.04
982.866
982.675
982.467
982.242
982
981.741
981.466
981.177
980.875
980.56
980.237
979.906
979.571
979.234
978.899
978.568
978.246
977.935
977.639
977.361
977.104
976.872
976.666
976.489
976.344
976.23
976.15
976.104
976.093
976.115
976.172
976.261
976.381
976.531
976.709
976.912
977.138
977.385
977.65
977.931
978.223
978.526
978.836
979.15
979.467
979.784
980.099
980.409
980.714
981.011
981.298
981.576
981.842
982.096
982.337
982.565
982.78
982.982
983.17
983.345
983.507
983.657
983.796
983.925
984.044
984.154
984.257
984.352
984.442
984.527
984.608
984.686
984.761
984.834
984.906
984.977
985.047
985.115
985.184
985.251
985.316
985.38
985.44
985.497
985.55
985.597
985.638
985.669
985.693
985.707
985.705
985.689
985.665
985.62
985.541
985.46
985.376
985.211
985.013
984.911
984.703
984.258
984.075
984.024
983.332
982.82
982.927
982.433
981.946
982.066
1016.95
1016.63
1016.39
1016.5
1015.85
1015.25
1015.15
1014.7
1014.17
1013.87
1013.57
1013.16
1012.8
1012.53
1012.23
1011.92
1011.63
1011.36
1011.09
1010.82
1010.55
1010.29
1010.02
1009.75
1009.48
1009.21
1008.93
1008.65
1008.36
1008.06
1007.76
1007.44
1007.12
1006.79
1006.44
1006.09
1005.72
1005.34
1004.94
1004.53
1004.1
1003.66
1003.19
1002.72
1002.22
1001.71
1001.17
1000.62
1000.05
999.46
998.85
998.221
997.573
996.907
996.224
995.523
994.807
994.077
993.333
992.576
991.81
991.035
990.253
989.467
988.678
987.89
987.103
986.321
985.545
984.779
984.023
983.281
982.554
981.844
981.153
980.483
979.834
979.208
978.605
978.028
977.476
976.949
976.448
975.974
975.525
975.102
974.704
974.333
973.985
973.661
973.361
973.085
972.83
972.598
972.386
972.195
972.024
971.872
971.738
971.623
971.525
971.444
971.378
971.329
971.295
971.277
971.272
971.282
971.305
971.342
971.391
971.453
971.527
971.613
971.71
971.818
971.937
972.067
972.206
972.356
972.514
972.682
972.86
973.046
973.239
973.442
973.652
973.869
974.094
974.325
974.563
974.807
975.057
975.312
975.573
975.838
976.107
976.38
976.657
976.936
977.218
977.501
977.785
978.07
978.356
978.64
978.923
979.204
979.483
979.758
980.03
980.297
980.559
980.814
981.064
981.306
981.541
981.767
981.984
982.193
982.391
982.58
982.758
982.925
983.081
983.226
983.359
983.48
983.589
983.687
983.772
983.846
983.907
983.957
983.995
984.022
984.037
984.04
984.032
984.012
983.981
983.938
983.882
983.813
983.732
983.636
983.526
983.401
983.26
983.102
982.928
982.735
982.525
982.296
982.05
981.786
981.505
981.209
980.899
980.576
980.243
979.902
979.556
979.208
978.861
978.52
978.186
977.864
977.558
977.27
977.004
976.764
976.551
976.368
976.218
976.101
976.019
975.972
975.96
975.984
976.043
976.135
976.259
976.414
976.597
976.806
977.039
977.293
977.566
977.853
978.154
978.464
978.782
979.104
979.428
979.752
980.074
980.39
980.701
981.004
981.297
981.579
981.849
982.107
982.351
982.582
982.799
983.002
983.191
983.367
983.53
983.68
983.819
983.946
984.065
984.174
984.276
984.37
984.459
984.543
984.624
984.701
984.777
984.85
984.923
984.995
985.067
985.137
985.208
985.278
985.347
985.415
985.48
985.543
985.601
985.654
985.701
985.741
985.771
985.793
985.806
985.802
985.782
985.759
985.714
985.626
985.549
985.483
985.313
985.111
985.06
984.892
984.46
984.33
984.363
983.926
983.534
983.624
983.647
983.322
1016.49
1016.28
1016.14
1015.93
1015.53
1015.37
1014.95
1014.49
1014.27
1013.96
1013.55
1013.22
1012.96
1012.66
1012.34
1012.06
1011.8
1011.52
1011.25
1010.98
1010.72
1010.46
1010.19
1009.92
1009.65
1009.38
1009.1
1008.82
1008.53
1008.23
1007.92
1007.61
1007.28
1006.95
1006.6
1006.24
1005.87
1005.48
1005.08
1004.67
1004.23
1003.78
1003.32
1002.83
1002.33
1001.81
1001.27
1000.71
1000.13
999.525
998.904
998.263
997.603
996.923
996.226
995.51
994.779
994.031
993.27
992.497
991.713
990.92
990.121
989.317
988.511
987.706
986.903
986.105
985.315
984.534
983.766
983.013
982.276
981.558
980.86
980.183
979.53
978.901
978.298
977.72
977.169
976.644
976.147
975.676
975.233
974.815
974.424
974.059
973.718
973.402
973.109
972.84
972.593
972.368
972.164
971.981
971.816
971.672
971.545
971.436
971.344
971.269
971.21
971.167
971.139
971.126
971.128
971.143
971.172
971.214
971.27
971.338
971.417
971.509
971.612
971.726
971.852
971.987
972.133
972.289
972.454
972.629
972.812
973.004
973.205
973.413
973.629
973.852
974.083
974.32
974.563
974.812
975.067
975.327
975.592
975.862
976.135
976.412
976.692
976.974
977.259
977.545
977.832
978.119
978.406
978.692
978.977
979.259
979.539
979.815
980.088
980.355
980.618
980.874
981.124
981.366
981.601
981.827
982.045
982.253
982.452
982.64
982.818
982.985
983.141
983.286
983.419
983.54
983.65
983.747
983.833
983.907
983.968
984.018
984.057
984.083
984.099
984.102
984.094
984.074
984.043
983.999
983.943
983.875
983.793
983.697
983.586
983.46
983.318
983.159
982.982
982.787
982.573
982.341
982.09
981.82
981.533
981.229
980.911
980.578
980.235
979.883
979.526
979.167
978.808
978.455
978.11
977.777
977.46
977.163
976.889
976.641
976.421
976.233
976.079
975.959
975.875
975.828
975.817
975.843
975.904
976
976.129
976.289
976.478
976.694
976.934
977.196
977.476
977.772
978.08
978.399
978.724
979.055
979.387
979.718
980.047
980.37
980.687
980.995
981.294
981.581
981.856
982.117
982.365
982.598
982.817
983.022
983.212
983.389
983.552
983.702
983.84
983.968
984.085
984.194
984.295
984.389
984.477
984.561
984.642
984.72
984.796
984.871
984.945
985.019
985.093
985.167
985.242
985.316
985.389
985.462
985.533
985.602
985.667
985.728
985.783
985.833
985.875
985.906
985.93
985.945
985.94
985.922
985.907
985.866
985.78
985.724
985.679
985.515
985.364
985.368
985.213
984.924
984.918
984.911
984.698
984.689
984.777
984.766
1015.98
1016
1015.88
1015.53
1015.4
1015.21
1014.77
1014.52
1014.26
1013.9
1013.6
1013.34
1013.04
1012.74
1012.47
1012.21
1011.94
1011.66
1011.41
1011.15
1010.89
1010.62
1010.36
1010.1
1009.83
1009.56
1009.28
1009
1008.71
1008.41
1008.1
1007.79
1007.46
1007.12
1006.77
1006.41
1006.04
1005.65
1005.24
1004.82
1004.39
1003.93
1003.46
1002.97
1002.46
1001.93
1001.38
1000.81
1000.22
999.606
998.972
998.317
997.642
996.947
996.233
995.501
994.751
993.985
993.204
992.411
991.607
990.793
989.973
989.149
988.323
987.498
986.676
985.86
985.052
984.256
983.473
982.707
981.958
981.23
980.523
979.84
979.182
978.55
977.944
977.366
976.816
976.294
975.8
975.334
974.896
974.485
974.101
973.742
973.41
973.102
972.818
972.557
972.318
972.101
971.905
971.73
971.574
971.436
971.317
971.215
971.13
971.062
971.01
970.974
970.952
970.946
970.953
970.975
971.011
971.06
971.122
971.196
971.282
971.381
971.492
971.613
971.745
971.888
972.042
972.206
972.379
972.561
972.752
972.952
973.16
973.376
973.6
973.831
974.068
974.313
974.563
974.819
975.08
975.346
975.617
975.891
976.17
976.452
976.736
977.022
977.31
977.599
977.889
978.179
978.468
978.756
979.042
979.325
979.606
979.883
980.155
980.423
980.685
980.94
981.189
981.431
981.665
981.891
982.108
982.315
982.513
982.7
982.877
983.044
983.199
983.343
983.475
983.596
983.705
983.803
983.888
983.962
984.023
984.073
984.112
984.139
984.154
984.158
984.149
984.129
984.097
984.054
983.997
983.928
983.845
983.748
983.637
983.509
983.365
983.204
983.024
982.826
982.609
982.372
982.115
981.84
981.546
981.234
980.906
980.565
980.211
979.849
979.481
979.11
978.741
978.376
978.02
977.677
977.35
977.044
976.762
976.507
976.282
976.089
975.931
975.809
975.724
975.676
975.667
975.694
975.759
975.859
975.993
976.159
976.355
976.578
976.825
977.095
977.383
977.687
978.004
978.331
978.665
979.004
979.344
979.683
980.018
980.349
980.672
980.986
981.29
981.582
981.861
982.126
982.377
982.613
982.834
983.04
983.232
983.409
983.572
983.723
983.861
983.987
984.104
984.212
984.313
984.407
984.495
984.58
984.661
984.74
984.817
984.894
984.971
985.048
985.126
985.204
985.283
985.363
985.442
985.521
985.6
985.676
985.749
985.82
985.885
985.945
986
986.046
986.08
986.109
986.132
986.132
986.121
986.123
986.095
986.02
985.998
985.992
985.858
985.766
985.835
985.772
985.62
985.701
985.841
985.838
985.947
986.201
1015.69
1015.67
1015.56
1015.4
1015.24
1014.93
1014.73
1014.53
1014.18
1013.9
1013.68
1013.39
1013.1
1012.85
1012.6
1012.33
1012.06
1011.82
1011.56
1011.31
1011.05
1010.8
1010.54
1010.28
1010.01
1009.74
1009.47
1009.18
1008.9
1008.6
1008.29
1007.98
1007.65
1007.31
1006.96
1006.6
1006.22
1005.83
1005.43
1005
1004.56
1004.1
1003.62
1003.13
1002.61
1002.07
1001.51
1000.93
1000.32
999.699
999.052
998.382
997.691
996.979
996.247
995.495
994.724
993.937
993.135
992.319
991.491
990.655
989.811
988.964
988.114
987.266
986.422
985.586
984.759
983.944
983.145
982.363
981.601
980.861
980.145
979.455
978.79
978.155
977.547
976.969
976.42
975.901
975.411
974.95
974.518
974.114
973.738
973.388
973.064
972.765
972.49
972.238
972.008
971.801
971.614
971.447
971.299
971.17
971.058
970.964
970.887
970.826
970.781
970.751
970.737
970.737
970.752
970.78
970.823
970.879
970.948
971.029
971.123
971.23
971.348
971.478
971.618
971.77
971.933
972.105
972.287
972.479
972.679
972.888
973.106
973.331
973.564
973.804
974.051
974.303
974.562
974.826
975.095
975.369
975.646
975.928
976.212
976.5
976.789
977.08
977.372
977.665
977.958
978.25
978.542
978.831
979.118
979.402
979.683
979.96
980.232
980.499
980.76
981.014
981.262
981.502
981.734
981.958
982.172
982.377
982.573
982.758
982.934
983.098
983.251
983.393
983.524
983.644
983.752
983.848
983.932
984.005
984.067
984.116
984.154
984.181
984.196
984.2
984.191
984.171
984.139
984.094
984.037
983.967
983.884
983.785
983.672
983.542
983.396
983.232
983.05
982.848
982.626
982.384
982.123
981.841
981.54
981.221
980.885
980.535
980.172
979.8
979.421
979.04
978.66
978.285
977.919
977.567
977.231
976.917
976.628
976.367
976.136
975.94
975.779
975.655
975.569
975.522
975.514
975.544
975.612
975.717
975.856
976.028
976.231
976.461
976.716
976.993
977.29
977.602
977.928
978.263
978.605
978.952
979.3
979.646
979.989
980.326
980.655
980.975
981.284
981.581
981.864
982.133
982.387
982.626
982.849
983.056
983.249
983.426
983.59
983.741
983.878
984.005
984.122
984.23
984.33
984.424
984.513
984.598
984.681
984.762
984.841
984.921
985.001
985.082
985.164
985.248
985.333
985.419
985.505
985.592
985.678
985.764
985.847
985.928
986.005
986.077
986.144
986.206
986.259
986.301
986.342
986.376
986.386
986.393
986.42
986.412
986.369
986.396
986.426
986.362
986.371
986.484
986.522
986.579
986.764
986.967
987.237
987.554
1015.48
1015.41
1015.31
1015.25
1015.05
1014.83
1014.68
1014.41
1014.16
1013.95
1013.69
1013.42
1013.19
1012.95
1012.69
1012.44
1012.2
1011.96
1011.71
1011.46
1011.22
1010.97
1010.71
1010.46
1010.2
1009.93
1009.66
1009.38
1009.09
1008.8
1008.49
1008.18
1007.85
1007.52
1007.17
1006.8
1006.42
1006.03
1005.62
1005.19
1004.75
1004.28
1003.8
1003.3
1002.77
1002.22
1001.65
1001.06
1000.45
999.806
999.143
998.457
997.749
997.018
996.265
995.492
994.699
993.889
993.062
992.221
991.367
990.505
989.635
988.761
987.885
987.012
986.144
985.283
984.434
983.598
982.78
981.981
981.205
980.452
979.725
979.026
978.356
977.716
977.107
976.529
975.981
975.465
974.98
974.525
974.101
973.704
973.337
972.996
972.682
972.393
972.128
971.886
971.667
971.469
971.292
971.134
970.995
970.875
970.772
970.686
970.616
970.563
970.525
970.503
970.496
970.503
970.525
970.56
970.61
970.674
970.75
970.839
970.942
971.056
971.183
971.322
971.472
971.633
971.805
971.988
972.18
972.382
972.593
972.813
973.041
973.277
973.521
973.771
974.029
974.292
974.56
974.834
975.112
975.395
975.681
975.97
976.262
976.556
976.852
977.148
977.445
977.742
978.039
978.334
978.627
978.918
979.207
979.491
979.772
980.048
980.319
980.584
980.843
981.096
981.341
981.578
981.807
982.027
982.238
982.44
982.632
982.813
982.985
983.146
983.296
983.435
983.563
983.68
983.785
983.879
983.962
984.033
984.093
984.141
984.179
984.205
984.219
984.222
984.213
984.193
984.16
984.115
984.057
983.986
983.901
983.801
983.686
983.555
983.406
983.239
983.053
982.848
982.622
982.376
982.109
981.821
981.514
981.188
980.845
980.487
980.115
979.735
979.347
978.957
978.568
978.184
977.81
977.449
977.106
976.786
976.491
976.224
975.99
975.79
975.626
975.501
975.415
975.369
975.363
975.396
975.468
975.577
975.722
975.899
976.108
976.345
976.608
976.893
977.198
977.519
977.852
978.196
978.546
978.901
979.256
979.61
979.959
980.303
980.638
980.964
981.278
981.579
981.866
982.138
982.395
982.636
982.861
983.07
983.263
983.441
983.605
983.756
983.893
984.019
984.136
984.244
984.345
984.439
984.529
984.616
984.7
984.784
984.866
984.949
985.034
985.12
985.208
985.297
985.389
985.482
985.577
985.672
985.768
985.864
985.959
986.051
986.141
986.228
986.309
986.385
986.459
986.523
986.576
986.633
986.687
986.713
986.746
986.808
986.832
986.837
986.921
987.01
987.036
987.144
987.348
987.52
987.728
988.051
988.448
988.879
1015.27
1015.23
1015.17
1015.05
1014.9
1014.78
1014.57
1014.35
1014.18
1013.95
1013.7
1013.49
1013.26
1013.02
1012.78
1012.56
1012.32
1012.08
1011.85
1011.62
1011.37
1011.13
1010.88
1010.63
1010.38
1010.12
1009.85
1009.58
1009.29
1009
1008.7
1008.39
1008.06
1007.73
1007.38
1007.01
1006.64
1006.24
1005.83
1005.4
1004.95
1004.48
1003.99
1003.48
1002.95
1002.39
1001.81
1001.21
1000.58
999.924
999.246
998.543
997.815
997.064
996.289
995.493
994.676
993.839
992.985
992.116
991.235
990.343
989.443
988.54
987.636
986.734
985.838
984.951
984.077
983.219
982.379
981.562
980.768
980.002
979.264
978.555
977.879
977.235
976.623
976.046
975.5
974.988
974.509
974.061
973.645
973.258
972.901
972.571
972.267
971.989
971.736
971.505
971.297
971.109
970.943
970.795
970.666
970.554
970.46
970.383
970.322
970.276
970.246
970.231
970.231
970.246
970.275
970.318
970.375
970.446
970.53
970.628
970.739
970.862
970.998
971.146
971.306
971.478
971.661
971.854
972.058
972.271
972.494
972.726
972.967
973.215
973.471
973.733
974.002
974.277
974.557
974.842
975.131
975.424
975.72
976.018
976.319
976.621
976.923
977.226
977.529
977.83
978.131
978.43
978.726
979.019
979.308
979.593
979.873
980.148
980.418
980.681
980.937
981.186
981.427
981.66
981.884
982.1
982.306
982.502
982.689
982.865
983.032
983.187
983.332
983.466
983.59
983.702
983.804
983.894
983.973
984.041
984.099
984.145
984.18
984.204
984.217
984.219
984.209
984.188
984.155
984.109