# vtk DataFile Version 2.0
LBE mesh
ASCII
DATASET STRUCTURED_POINTS
DIMENSIONS 300 100 1
ASPECT_RATIO 1 1 1
ORIGIN 0 0 0
POINT_DATA 30000
SCALARS rho double 1
LOOKUP_TABLE default
1047.43
1015.79
1015.07
1021.51
1019.67
1015.76
1015.55
1016.04
1015.26
1014.45
1014.27
1014.09
1013.7
1013.38
1013.17
1012.94
1012.68
1012.44
1012.22
1012
1011.77
1011.55
1011.32
1011.1
1010.86
1010.63
1010.39
1010.14
1009.89
1009.63
1009.36
1009.09
1008.8
1008.51
1008.2
1007.88
1007.55
1007.21
1006.86
1006.49
1006.11
1005.71
1005.3
1004.87
1004.43
1003.97
1003.5
1003.01
1002.5
1001.98
1001.43
1000.88
1000.3
999.711
999.104
998.482
997.846
997.196
996.533
995.859
995.174
994.48
993.778
993.07
992.357
991.642
990.925
990.209
989.496
988.786
988.083
987.387
986.701
986.026
985.364
984.717
984.085
983.47
982.872
982.294
981.736
981.198
980.681
980.185
979.711
979.259
978.829
978.421
978.034
977.669
977.325
977.002
976.699
976.415
976.151
975.906
975.678
975.468
975.274
975.097
974.935
974.787
974.654
974.534
974.427
974.332
974.249
974.176
974.114
974.062
974.019
973.984
973.958
973.94
973.928
973.923
973.925
973.932
973.944
973.962
973.984
974.01
974.04
974.073
974.109
974.148
974.189
974.232
974.277
974.322
974.369
974.417
974.464
974.512
974.56
974.607
974.654
974.699
974.743
974.786
974.827
974.867
974.904
974.939
974.972
975.002
975.029
975.054
975.076
975.095
975.111
975.124
975.134
975.142
975.147
975.15
975.151
975.152
975.152
975.152
975.153
975.156
975.163
975.173
975.19
975.213
975.245
975.286
975.339
975.405
975.484
975.578
975.688
975.816
975.962
976.126
976.31
976.514
976.736
976.978
977.239
977.518
977.815
978.129
978.458
978.801
979.157
979.524
979.901
980.286
980.677
981.073
981.472
981.873
982.274
982.673
983.069
983.461
983.847
984.226
984.599
984.962
985.316
985.66
985.994
986.316
986.627
986.926
987.213
987.488
987.751
988.001
988.239
988.465
988.678
988.88
989.069
989.247
989.414
989.57
989.714
989.847
989.969
990.08
990.181
990.271
990.35
990.418
990.476
990.522
990.556
990.579
990.59
990.588
990.573
990.545
990.503
990.446
990.375
990.289
990.187
990.069
989.935
989.784
989.617
989.433
989.234
989.018
988.787
988.541
988.279
988.005
987.716
987.417
987.106
986.785
986.456
986.12
985.778
985.433
985.084
984.734
984.385
984.037
983.693
983.354
983.021
982.696
982.379
982.071
981.773
981.487
981.212
980.948
980.695
980.453
980.222
979.999
979.783
979.573
979.366
979.156
978.942
978.729
978.499
978.232
977.963
977.694
977.311
976.845
976.523
976.069
975.032
974.31
974.421
972.455
968.669
970.731
971.601
948.383
1030.35
1026.81
1022.72
1017.52
1017.68
1017.83
1016.64
1015.47
1015.22
1014.96
1014.47
1014.05
1013.81
1013.54
1013.24
1012.98
1012.74
1012.5
1012.26
1012.03
1011.81
1011.58
1011.35
1011.11
1010.88
1010.64
1010.4
1010.15
1009.89
1009.63
1009.36
1009.08
1008.79
1008.49
1008.18
1007.86
1007.53
1007.19
1006.83
1006.46
1006.08
1005.68
1005.27
1004.84
1004.39
1003.93
1003.46
1002.97
1002.46
1001.93
1001.39
1000.83
1000.25
999.663
999.057
998.435
997.799
997.149
996.487
995.814
995.13
994.438
993.737
993.031
992.32
991.607
990.893
990.18
989.469
988.762
988.062
987.369
986.686
986.015
985.356
984.712
984.083
983.472
982.877
982.302
981.747
981.212
980.698
980.205
979.733
979.284
978.856
978.45
978.065
977.701
977.359
977.037
976.735
976.452
976.19
975.945
975.718
975.508
975.315
975.138
974.977
974.83
974.697
974.577
974.47
974.376
974.292
974.22
974.158
974.106
974.063
974.028
974.002
973.984
973.972
973.967
973.969
973.976
973.989
974.007
974.029
974.055
974.085
974.118
974.155
974.194
974.235
974.278
974.322
974.368
974.415
974.462
974.509
974.557
974.604
974.651
974.697
974.742
974.786
974.829
974.87
974.908
974.945
974.979
975.012
975.041
975.068
975.092
975.113
975.132
975.147
975.16
975.17
975.177
975.182
975.185
975.187
975.187
975.186
975.186
975.188
975.191
975.197
975.208
975.224
975.247
975.278
975.319
975.371
975.435
975.512
975.605
975.713
975.839
975.983
976.145
976.326
976.527
976.746
976.986
977.244
977.52
977.814
978.125
978.451
978.792
979.145
979.51
979.884
980.267
980.656
981.05
981.448
981.847
982.246
982.644
983.039
983.43
983.815
984.194
984.566
984.929
985.283
985.627
985.961
986.283
986.594
986.894
987.182
987.457
987.72
987.971
988.209
988.436
988.65
988.852
989.042
989.221
989.388
989.543
989.688
989.822
989.945
990.057
990.157
990.248
990.327
990.396
990.454
990.5
990.536
990.559
990.57
990.569
990.556
990.528
990.487
990.432
990.362
990.277
990.177
990.06
989.928
989.779
989.614
989.432
989.235
989.021
988.791
988.547
988.287
988.014
987.728
987.429
987.119
986.8
986.471
986.136
985.795
985.449
985.1
984.75
984.4
984.052
983.707
983.366
983.031
982.703
982.384
982.073
981.773
981.483
981.205
980.937
980.68
980.434
980.197
979.969
979.749
979.532
979.318
979.105
978.886
978.656
978.419
978.168
977.874
977.546
977.223
976.818
976.26
975.737
975.272
974.266
972.968
972.465
971.341
967.245
963.567
961.79
1022.26
1027.06
1022.39
1018.08
1018.31
1018.02
1016.63
1015.67
1015.46
1015.1
1014.57
1014.17
1013.91
1013.62
1013.32
1013.05
1012.81
1012.56
1012.31
1012.08
1011.85
1011.61
1011.38
1011.14
1010.9
1010.66
1010.41
1010.16
1009.9
1009.64
1009.36
1009.08
1008.79
1008.49
1008.18
1007.86
1007.53
1007.18
1006.82
1006.45
1006.06
1005.66
1005.25
1004.82
1004.37
1003.91
1003.43
1002.94
1002.43
1001.9
1001.36
1000.8
1000.22
999.629
999.021
998.398
997.761
997.11
996.448
995.774
995.089
994.396
993.696
992.989
992.279
991.566
990.852
990.139
989.429
988.724
988.025
987.334
986.653
985.984
985.327
984.685
984.058
983.449
982.857
982.285
981.732
981.199
980.688
980.198
979.729
979.282
978.856
978.453
978.07
977.709
977.369
977.049
976.749
976.468
976.207
975.964
975.739
975.531
975.339
975.163
975.003
974.857
974.725
974.606
974.499
974.405
974.323
974.251
974.19
974.138
974.096
974.062
974.036
974.019
974.007
974.003
974.005
974.013
974.026
974.044
974.067
974.094
974.125
974.158
974.195
974.234
974.276
974.319
974.364
974.41
974.457
974.504
974.552
974.599
974.647
974.694
974.74
974.785
974.829
974.871
974.911
974.95
974.986
975.02
975.052
975.081
975.107
975.131
975.152
975.17
975.185
975.197
975.206
975.213
975.218
975.22
975.221
975.221
975.219
975.218
975.218
975.22
975.225
975.235
975.249
975.27
975.299
975.338
975.388
975.449
975.524
975.614
975.72
975.843
975.983
976.143
976.321
976.519
976.736
976.973
977.228
977.503
977.795
978.104
978.428
978.767
979.119
979.483
979.857
980.239
980.628
981.021
981.418
981.817
982.216
982.614
983.009
983.4
983.786
984.165
984.537
984.901
985.256
985.6
985.934
986.257
986.569
986.869
987.158
987.433
987.697
987.949
988.187
988.414
988.629
988.832
989.022
989.201
989.368
989.524
989.669
989.803
989.927
990.039
990.14
990.231
990.311
990.38
990.438
990.486
990.522
990.546
990.559
990.559
990.547
990.521
990.481
990.428
990.359
990.276
990.177
990.063
989.932
989.785
989.622
989.442
989.247
989.034
988.806
988.563
988.304
988.032
987.746
987.448
987.138
986.819
986.49
986.154
985.812
985.465
985.115
984.763
984.411
984.061
983.713
983.37
983.032
982.702
982.379
982.065
981.762
981.469
981.186
980.915
980.655
980.405
980.164
979.933
979.709
979.49
979.271
979.055
978.837
978.602
978.354
978.109
977.828
977.469
977.127
976.807
976.236
975.524
975.231
974.619
972.699
971.887
972.794
968.603
963.203
967.507
1021.98
1020.71
1020.17
1021.34
1018.83
1016.72
1016.67
1016.58
1015.66
1014.95
1014.71
1014.44
1014.02
1013.67
1013.42
1013.16
1012.88
1012.62
1012.39
1012.14
1011.9
1011.66
1011.43
1011.19
1010.94
1010.7
1010.45
1010.19
1009.93
1009.66
1009.39
1009.1
1008.81
1008.51
1008.2
1007.87
1007.54
1007.19
1006.83
1006.46
1006.07
1005.67
1005.25
1004.82
1004.37
1003.91
1003.43
1002.93
1002.42
1001.89
1001.34
1000.78
1000.2
999.604
998.993
998.368
997.728
997.075
996.409
995.732
995.045
994.35
993.647
992.938
992.225
991.51
990.795
990.081
989.369
988.663
987.963
987.272
986.591
985.922
985.266
984.625
984
983.393
982.803
982.232
981.682
981.152
980.644
980.157
979.691
979.247
978.825
978.424
978.045
977.687
977.35
977.033
976.736
976.458
976.2
975.96
975.737
975.531
975.341
975.168
975.009
974.865
974.735
974.617
974.512
974.42
974.338
974.268
974.208
974.157
974.115
974.083
974.058
974.041
974.031
974.027
974.03
974.039
974.053
974.072
974.095
974.123
974.154
974.188
974.226
974.266
974.308
974.352
974.398
974.444
974.492
974.54
974.588
974.636
974.684
974.731
974.778
974.823
974.867
974.909
974.95
974.988
975.024
975.058
975.09
975.119
975.145
975.168
975.189
975.206
975.221
975.232
975.241
975.247
975.25
975.252
975.251
975.25
975.247
975.244
975.242
975.242
975.245
975.251
975.263
975.281
975.307
975.342
975.388
975.446
975.518
975.604
975.707
975.826
975.964
976.12
976.295
976.49
976.705
976.94
977.194
977.467
977.758
978.066
978.391
978.729
979.082
979.445
979.82
980.202
980.592
980.986
981.385
981.785
982.185
982.584
982.98
983.372
983.759
984.14
984.512
984.877
985.233
985.578
985.913
986.237
986.55
986.851
987.139
987.416
987.68
987.932
988.171
988.399
988.613
988.816
989.007
989.186
989.354
989.51
989.655
989.79
989.913
990.026
990.128
990.219
990.299
990.37
990.429
990.477
990.514
990.54
990.554
990.556
990.545
990.521
990.483
990.432
990.366
990.285
990.188
990.076
989.947
989.802
989.641
989.463
989.268
989.058
988.83
988.588
988.33
988.058
987.772
987.473
987.162
986.842
986.512
986.174
985.829
985.48
985.127
984.773
984.418
984.064
983.713
983.366
983.025
982.691
982.365
982.048
981.741
981.444
981.159
980.884
980.621
980.368
980.126
979.893
979.666
979.446
979.229
979.009
978.787
978.566
978.322
978.05
977.785
977.494
977.089
976.671
976.348
975.773
974.865
974.422
974.038
972.177
970.597
970.787
970.071
968.554
1021.97
1019.79
1019.71
1019.59
1018.11
1017.68
1017.11
1016.26
1015.64
1015.33
1014.95
1014.48
1014.12
1013.84
1013.55
1013.25
1012.98
1012.73
1012.48
1012.23
1011.98
1011.74
1011.5
1011.25
1011.01
1010.76
1010.51
1010.25
1009.98
1009.71
1009.44
1009.15
1008.86
1008.55
1008.24
1007.91
1007.57
1007.22
1006.86
1006.49
1006.1
1005.69
1005.27
1004.84
1004.39
1003.92
1003.44
1002.94
1002.42
1001.89
1001.34
1000.77
1000.19
999.587
998.972
998.341
997.697
997.039
996.368
995.686
994.994
994.293
993.585
992.871
992.154
991.434
990.714
989.996
989.281
988.572
987.87
987.176
986.494
985.824
985.167
984.526
983.902
983.295
982.708
982.139
981.591
981.064
980.559
980.075
979.613
979.173
978.755
978.359
977.984
977.631
977.298
976.985
976.692
976.418
976.164
975.927
975.708
975.506
975.319
975.149
974.993
974.851
974.723
974.608
974.506
974.415
974.335
974.266
974.208
974.158
974.118
974.087
974.063
974.047
974.038
974.036
974.04
974.049
974.064
974.084
974.108
974.137
974.169
974.204
974.242
974.283
974.326
974.371
974.418
974.465
974.514
974.563
974.612
974.661
974.71
974.758
974.805
974.851
974.895
974.938
974.979
975.018
975.055
975.09
975.121
975.15
975.176
975.2
975.22
975.237
975.251
975.262
975.27
975.275
975.277
975.277
975.275
975.271
975.266
975.261
975.257
975.254
975.253
975.256
975.264
975.278
975.3
975.331
975.373
975.427
975.494
975.577
975.675
975.791
975.925
976.078
976.251
976.444
976.657
976.891
977.144
977.417
977.708
978.016
978.341
978.681
979.034
979.399
979.776
980.16
980.551
980.948
981.348
981.75
982.152
982.553
982.951
983.345
983.733
984.116
984.49
984.856
985.213
985.559
985.896
986.221
986.534
986.836
987.125
987.403
987.667
987.919
988.159
988.387
988.602
988.805
988.997
989.176
989.344
989.5
989.645
989.78
989.904
990.017
990.119
990.211
990.292
990.363
990.424
990.473
990.512
990.539
990.555
990.558
990.549
990.527
990.492
990.443
990.379
990.301
990.207
990.097
989.97
989.827
989.668
989.492
989.298
989.088
988.862
988.62
988.361
988.089
987.802
987.502
987.19
986.867
986.534
986.194
985.846
985.493
985.137
984.779
984.42
984.063
983.708
983.357
983.012
982.674
982.344
982.023
981.712
981.413
981.124
980.847
980.582
980.328
980.084
979.851
979.624
979.403
979.189
978.974
978.752
978.53
978.305
978.042
977.752
977.49
977.165
976.685
976.289
975.997
975.205
974.266
974.222
973.493
971.358
971.199
971.487
970.059
1019.88
1019.9
1019.47
1017.99
1018.12
1017.96
1016.78
1016.15
1015.97
1015.55
1014.96
1014.59
1014.33
1014
1013.66
1013.38
1013.12
1012.85
1012.59
1012.34
1012.09
1011.84
1011.6
1011.35
1011.1
1010.85
1010.59
1010.33
1010.07
1009.79
1009.51
1009.22
1008.93
1008.62
1008.3
1007.98
1007.64
1007.28
1006.92
1006.54
1006.15
1005.74
1005.32
1004.88
1004.43
1003.95
1003.47
1002.96
1002.44
1001.9
1001.35
1000.77
1000.18
999.578
998.956
998.318
997.666
997
996.322
995.632
994.932
994.223
993.507
992.786
992.06
991.334
990.607
989.883
989.162
988.447
987.74
987.043
986.357
985.684
985.026
984.384
983.759
983.153
982.567
982
981.455
980.931
980.429
979.95
979.492
979.058
978.644
978.253
977.884
977.536
977.208
976.901
976.614
976.346
976.096
975.864
975.65
975.452
975.27
975.103
974.951
974.813
974.689
974.577
974.477
974.388
974.311
974.244
974.187
974.14
974.101
974.071
974.049
974.033
974.026
974.024
974.029
974.039
974.055
974.075
974.1
974.13
974.163
974.199
974.238
974.28
974.324
974.37
974.418
974.467
974.517
974.567
974.618
974.668
974.718
974.767
974.816
974.863
974.909
974.953
974.995
975.035
975.073
975.108
975.141
975.17
975.197
975.221
975.241
975.258
975.272
975.282
975.289
975.293
975.293
975.292
975.288
975.282
975.274
975.267
975.259
975.252
975.248
975.247
975.251
975.261
975.278
975.305
975.342
975.391
975.455
975.533
975.628
975.74
975.871
976.022
976.193
976.384
976.596
976.829
977.083
977.355
977.647
977.957
978.283
978.625
978.98
979.348
979.727
980.114
980.508
980.907
981.31
981.714
982.119
982.522
982.922
983.318
983.709
984.093
984.47
984.837
985.195
985.543
985.881
986.206
986.521
986.823
987.114
987.391
987.657
987.91
988.15
988.378
988.593
988.797
988.988
989.168
989.336
989.493
989.638
989.773
989.897
990.011
990.114
990.206
990.289
990.361
990.422
990.473
990.513
990.542
990.56
990.566
990.559
990.539
990.507
990.46
990.399
990.323
990.232
990.124
990
989.859
989.701
989.527
989.335
989.125
988.899
988.657
988.398
988.124
987.836
987.534
987.219
986.894
986.558
986.214
985.862
985.505
985.145
984.783
984.42
984.057
983.698
983.343
982.993
982.651
982.317
981.993
981.679
981.376
981.085
980.806
980.539
980.285
980.04
979.807
979.584
979.365
979.15
978.943
978.733
978.507
978.281
978.06
977.784
977.465
977.202
976.883
976.337
975.89
975.67
974.898
973.86
973.711
973.38
972.192
971.57
971.92
1018.83
1019.21
1018.73
1018.08
1017.88
1017.14
1016.76
1016.51
1015.94
1015.41
1015.12
1014.83
1014.44
1014.09
1013.82
1013.55
1013.26
1012.98
1012.73
1012.48
1012.22
1011.97
1011.72
1011.47
1011.22
1010.96
1010.71
1010.44
1010.17
1009.9
1009.62
1009.33
1009.03
1008.72
1008.4
1008.07
1007.72
1007.37
1007
1006.62
1006.22
1005.81
1005.39
1004.94
1004.49
1004.01
1003.52
1003.01
1002.48
1001.93
1001.37
1000.79
1000.19
999.576
998.945
998.298
997.636
996.96
996.271
995.57
994.859
994.14
993.413
992.681
991.946
991.209
990.473
989.739
989.01
988.288
987.574
986.871
986.18
985.503
984.842
984.198
983.572
982.966
982.38
981.815
981.273
980.752
980.255
979.78
979.328
978.898
978.491
978.107
977.744
977.402
977.082
976.781
976.5
976.239
975.996
975.77
975.561
975.369
975.193
975.031
974.883
974.75
974.629
974.521
974.424
974.339
974.264
974.2
974.145
974.099
974.062
974.033
974.012
973.998
973.99
973.99
973.995
974.006
974.022
974.043
974.069
974.099
974.132
974.169
974.209
974.251
974.296
974.344
974.392
974.442
974.493
974.545
974.597
974.65
974.701
974.752
974.803
974.852
974.9
974.946
974.99
975.032
975.071
975.108
975.142
975.173
975.201
975.225
975.246
975.263
975.277
975.287
975.293
975.296
975.296
975.293
975.287
975.279
975.269
975.258
975.247
975.237
975.229
975.224
975.224
975.229
975.242
975.264
975.297
975.342
975.402
975.476
975.568
975.678
975.806
975.955
976.125
976.315
976.527
976.76
977.014
977.288
977.582
977.894
978.222
978.567
978.925
979.296
979.677
980.067
980.464
980.866
981.272
981.68
982.087
982.493
982.896
983.294
983.687
984.073
984.451
984.82
985.179
985.529
985.867
986.194
986.509
986.812
987.103
987.381
987.647
987.901
988.141
988.369
988.585
988.789
988.981
989.161
989.329
989.486
989.633
989.768
989.892
990.007
990.11
990.204
990.288
990.361
990.424
990.476
990.518
990.549
990.568
990.577
990.572
990.555
990.526
990.482
990.423
990.35
990.261
990.156
990.035
989.896
989.74
989.567
989.376
989.167
988.941
988.698
988.438
988.163
987.872
987.568
987.251
986.921
986.582
986.234
985.878
985.517
985.152
984.784
984.416
984.049
983.685
983.325
982.971
982.625
982.287
981.959
981.642
981.336
981.043
980.763
980.495
980.24
979.997
979.765
979.543
979.331
979.121
978.914
978.715
978.508
978.279
978.057
977.837
977.54
977.212
976.969
976.615
976.024
975.671
975.432
974.575
973.883
973.81
973.198
972.637
972.867
1018.55
1018.24
1018
1018.12
1017.48
1016.9
1016.79
1016.36
1015.84
1015.54
1015.25
1014.86
1014.51
1014.25
1013.97
1013.66
1013.39
1013.13
1012.88
1012.62
1012.36
1012.11
1011.86
1011.61
1011.36
1011.1
1010.84
1010.58
1010.31
1010.03
1009.74
1009.45
1009.15
1008.84
1008.52
1008.18
1007.84
1007.48
1007.11
1006.72
1006.32
1005.91
1005.48
1005.03
1004.57
1004.08
1003.58
1003.07
1002.53
1001.98
1001.41
1000.82
1000.21
999.581
998.939
998.28
997.606
996.917
996.215
995.501
994.777
994.044
993.304
992.558
991.81
991.06
990.312
989.567
988.827
988.094
987.372
986.661
985.963
985.281
984.615
983.968
983.341
982.734
982.149
981.586
981.046
980.529
980.036
979.566
979.12
978.697
978.297
977.92
977.565
977.231
976.919
976.626
976.353
976.099
975.864
975.645
975.444
975.258
975.088
974.932
974.79
974.661
974.545
974.441
974.348
974.266
974.194
974.133
974.08
974.036
974
973.972
973.952
973.939
973.932
973.931
973.937
973.948
973.964
973.984
974.01
974.039
974.073
974.109
974.15
974.193
974.238
974.286
974.335
974.386
974.439
974.492
974.546
974.6
974.654
974.707
974.76
974.811
974.862
974.91
974.957
975.001
975.043
975.082
975.119
975.152
975.181
975.207
975.229
975.248
975.262
975.273
975.279
975.282
975.281
975.277
975.27
975.26
975.248
975.235
975.221
975.208
975.196
975.188
975.184
975.185
975.195
975.213
975.242
975.284
975.34
975.412
975.501
975.608
975.736
975.884
976.053
976.243
976.456
976.69
976.945
977.221
977.517
977.831
978.163
978.51
978.872
979.246
979.63
980.024
980.424
980.83
981.238
981.648
982.059
982.467
982.871
983.272
983.667
984.054
984.433
984.804
985.165
985.515
985.854
986.181
986.497
986.8
987.092
987.37
987.637
987.89
988.131
988.36
988.576
988.78
988.972
989.152
989.322
989.479
989.626
989.762
989.888
990.003
990.108
990.202
990.287
990.362
990.426
990.48
990.524
990.557
990.579
990.59
990.588
990.574
990.547
990.506
990.45
990.38
990.294
990.192
990.072
989.936
989.782
989.61
989.42
989.212
988.985
988.741
988.481
988.203
987.911
987.604
987.283
986.95
986.606
986.253
985.893
985.527
985.157
984.784
984.411
984.039
983.67
983.306
982.947
982.597
982.255
981.923
981.603
981.295
981
980.719
980.451
980.196
979.955
979.725
979.505
979.296
979.097
978.896
978.697
978.508
978.307
978.074
977.855
977.646
977.334
976.985
976.768
976.424
975.812
975.466
975.268
974.611
974
973.88
973.722
973.382
1018.08
1017.87
1017.74
1017.54
1017.15
1017
1016.59
1016.14
1015.92
1015.62
1015.22
1014.9
1014.66
1014.37
1014.06
1013.79
1013.54
1013.28
1013.01
1012.76
1012.52
1012.27
1012.01
1011.76
1011.51
1011.25
1010.99
1010.73
1010.46
1010.18
1009.89
1009.6
1009.3
1008.98
1008.66
1008.32
1007.97
1007.61
1007.24
1006.85
1006.45
1006.03
1005.59
1005.14
1004.67
1004.18
1003.67
1003.15
1002.6
1002.04
1001.45
1000.85
1000.23
999.595
998.939
998.266
997.577
996.873
996.155
995.425
994.685
993.935
993.179
992.417
991.653
990.888
990.124
989.365
988.613
987.868
987.135
986.414
985.708
985.019
984.348
983.697
983.067
982.459
981.874
981.313
980.776
980.263
979.776
979.312
978.873
978.457
978.065
977.696
977.35
977.025
976.721
976.438
976.174
975.929
975.702
975.492
975.298
975.12
974.957
974.808
974.672
974.549
974.438
974.339
974.25
974.172
974.103
974.044
973.994
973.951
973.917
973.89
973.87
973.857
973.85
973.85
973.854
973.864
973.879
973.899
973.924
973.952
973.984
974.02
974.059
974.102
974.147
974.194
974.244
974.295
974.348
974.403
974.458
974.513
974.569
974.625
974.68
974.734
974.788
974.839
974.889
974.937
974.983
975.025
975.064
975.1
975.133
975.161
975.186
975.207
975.223
975.235
975.243
975.247
975.246
975.242
975.234
975.224
975.21
975.195
975.18
975.164
975.15
975.139
975.133
975.132
975.138
975.154
975.181
975.22
975.274
975.344
975.432
975.539
975.665
975.813
975.983
976.174
976.388
976.624
976.882
977.16
977.458
977.776
978.11
978.461
978.826
979.203
979.591
979.987
980.391
980.799
981.21
981.622
982.035
982.445
982.851
983.253
983.649
984.037
984.418
984.789
985.15
985.5
985.84
986.168
986.483
986.787
987.078
987.357
987.623
987.877
988.118
988.347
988.563
988.767
988.96
989.141
989.311
989.469
989.617
989.754
989.88
989.997
990.103
990.199
990.286
990.362
990.428
990.485
990.53
990.566
990.59
990.603
990.604
990.593
990.569
990.531
990.478
990.411
990.328
990.228
990.112
989.978
989.825
989.655
989.465
989.257
989.031
988.787
988.525
988.245
987.95
987.64
987.316
986.979
986.631
986.273
985.908
985.537
985.162
984.784
984.406
984.028
983.655
983.285
982.922
982.568
982.222
981.887
981.564
981.254
980.957
980.675
980.407
980.153
979.913
979.687
979.472
979.266
979.071
978.885
978.694
978.505
978.327
978.131
977.897
977.689
977.485
977.159
976.828
976.626
976.254
975.727
975.447
975.152
974.645
974.352
974.157
973.955
1017.55
1017.58
1017.47
1017.12
1017
1016.81
1016.39
1016.15
1015.9
1015.54
1015.25
1015.01
1014.72
1014.42
1014.17
1013.92
1013.66
1013.4
1013.16
1012.91
1012.67
1012.42
1012.17
1011.92
1011.67
1011.42
1011.16
1010.89
1010.62
1010.34
1010.06
1009.76
1009.46
1009.14
1008.82
1008.48
1008.13
1007.77
1007.39
1007
1006.59
1006.16
1005.72
1005.26
1004.79
1004.29
1003.77
1003.24
1002.68
1002.11
1001.52
1000.9
1000.27
999.616
998.944
998.255
997.549
996.828
996.092
995.343
994.584
993.815
993.039
992.259
991.476
990.693
989.912
989.137
988.369
987.61
986.864
986.132
985.417
984.719
984.042
983.386
982.753
982.144
981.56
981
980.466
979.958
979.476
979.019
978.587
978.18
977.797
977.438
977.101
976.786
976.493
976.22
975.966
975.731
975.513
975.313
975.128
974.958
974.803
974.662
974.533
974.416
974.311
974.217
974.133
974.059
973.993
973.937
973.889
973.848
973.815
973.789
973.768
973.755
973.747
973.746
973.749
973.757
973.771
973.789
973.811
973.837
973.867
973.901
973.938
973.979
974.022
974.068
974.117
974.168
974.221
974.275
974.331
974.388
974.445
974.502
974.56
974.617
974.674
974.728
974.782
974.834
974.883
974.93
974.974
975.014
975.051
975.084
975.112
975.136
975.156
975.171
975.181
975.187
975.188
975.185
975.179
975.169
975.156
975.141
975.125
975.109
975.094
975.082
975.074
975.072
975.078
975.092
975.118
975.156
975.21
975.279
975.367
975.474
975.602
975.75
975.921
976.115
976.331
976.569
976.829
977.111
977.412
977.733
978.07
978.424
978.792
979.172
979.563
979.962
980.368
980.778
981.191
981.605
982.018
982.43
982.837
983.239
983.635
984.024
984.404
984.775
985.136
985.486
985.825
986.152
986.468
986.771
987.062
987.34
987.606
987.859
988.1
988.329
988.545
988.75
988.943
989.124
989.295
989.454
989.603
989.741
989.869
989.987
990.095
990.193
990.281
990.359
990.428
990.486
990.535
990.573
990.599
990.615
990.619
990.611
990.589
990.554
990.505
990.441
990.361
990.264
990.15
990.018
989.868
989.699
989.51
989.303
989.076
988.831
988.568
988.287
987.989
987.676
987.348
987.007
986.655
986.293
985.923
985.547
985.167
984.784
984.4
984.018
983.639
983.266
982.898
982.539
982.19
981.852
981.526
981.214
980.916
980.632
980.364
980.111
979.873
979.649
979.44
979.241
979.05
978.871
978.7
978.52
978.34
978.178
977.988
977.752
977.557
977.364
977.033
976.716
976.525
976.181
975.717
975.449
975.212
974.834
974.541
974.423
1017.25
1017.24
1017.12
1016.98
1016.82
1016.52
1016.33
1016.13
1015.79
1015.53
1015.31
1015.03
1014.75
1014.51
1014.28
1014.02
1013.77
1013.53
1013.29
1013.05
1012.81
1012.57
1012.33
1012.08
1011.83
1011.58
1011.32
1011.06
1010.79
1010.51
1010.23
1009.93
1009.63
1009.32
1008.99
1008.65
1008.3
1007.93
1007.55
1007.16
1006.75
1006.32
1005.87
1005.4
1004.92
1004.42
1003.89
1003.35
1002.78
1002.2
1001.59
1000.96
1000.31
999.644
998.955
998.248
997.523
996.781
996.025
995.256
994.474
993.684
992.886
992.084
991.28
990.477
989.676
988.882
988.096
987.322
986.561
985.815
985.089
984.382
983.698
983.037
982.4
981.79
981.205
980.648
980.118
979.615
979.138
978.689
978.266
977.868
977.495
977.147
976.821
976.518
976.236
975.974
975.732
975.507
975.301
975.11
974.936
974.775
974.63
974.496
974.375
974.265
974.166
974.078
973.998
973.929
973.867
973.813
973.767
973.728
973.696
973.67
973.649
973.635
973.626
973.622
973.624
973.63
973.64
973.655
973.674
973.697
973.723
973.754
973.788
973.825
973.866
973.909
973.955
974.004
974.055
974.109
974.164
974.221
974.279
974.337
974.397
974.456
974.516
974.574
974.632
974.688
974.742
974.794
974.843
974.888
974.931
974.969
975.003
975.033
975.057
975.077
975.091
975.101
975.106
975.106
975.103
975.095
975.085
975.071
975.057
975.043
975.029
975.018
975.011
975.01
975.016
975.032
975.058
975.098
975.152
975.223
975.313
975.422
975.551
975.702
975.875
976.072
976.29
976.532
976.795
977.079
977.384
977.707
978.048
978.404
978.775
979.157
979.55
979.951
980.358
980.769
981.183
981.597
982.011
982.422
982.829
983.231
983.626
984.014
984.393
984.763
985.123
985.471
985.809
986.135
986.449
986.751
987.041
987.318
987.582
987.835
988.075
988.304
988.52
988.725
988.918
989.1
989.271
989.431
989.581
989.721
989.851
989.97
990.08
990.18
990.27
990.351
990.422
990.484
990.534
990.575
990.604
990.623
990.63
990.625
990.607
990.574
990.528
990.467
990.39
990.296
990.185
990.056
989.907
989.74
989.553
989.346
989.12
988.874
988.61
988.327
988.027
987.711
987.381
987.036
986.68
986.313
985.939
985.558
985.172
984.784
984.396
984.009
983.626
983.247
982.876
982.512
982.16
981.818
981.49
981.175
980.875
980.591
980.323
980.071
979.836
979.614
979.408
979.217
979.036
978.861
978.699
978.544
978.375
978.208
978.061
977.876
977.649
977.47
977.274
976.961
976.681
976.467
976.14
975.79
975.521
975.25
974.992
974.749
1017.02
1016.95
1016.86
1016.8
1016.61
1016.4
1016.25
1015.99
1015.75
1015.55
1015.3
1015.04
1014.82
1014.59
1014.34
1014.11
1013.88
1013.65
1013.41
1013.18
1012.95
1012.72
1012.48
1012.24
1012
1011.75
1011.49
1011.23
1010.97
1010.69
1010.41
1010.12
1009.81
1009.5
1009.17
1008.83
1008.48
1008.11
1007.73
1007.33
1006.92
1006.48
1006.03
1005.56
1005.07
1004.56
1004.02
1003.47
1002.89
1002.29
1001.67
1001.03
1000.36
999.678
998.971
998.244
997.498
996.734
995.955
995.162
994.357
993.542
992.72
991.893
991.065
990.238
989.416
988.6
987.794
987.001
986.224
985.464
984.724
984.008
983.315
982.648
982.009
981.396
980.813
980.258
979.732
979.235
978.766
978.325
977.911
977.524
977.163
976.826
976.513
976.222
975.953
975.704
975.474
975.262
975.067
974.888
974.724
974.575
974.438
974.314
974.201
974.098
974.007
973.924
973.85
973.785
973.727
973.676
973.632
973.595
973.563
973.537
973.516
973.501
973.49
973.484
973.482
973.485
973.491
973.502
973.516
973.534
973.556
973.582
973.611
973.644
973.68
973.719
973.761
973.807
973.855
973.906
973.959
974.015
974.072
974.131
974.191
974.253
974.314
974.376
974.437
974.498
974.557
974.614
974.669
974.721
974.769
974.815
974.855
974.892
974.923
974.95
974.971
974.987
974.998
975.005
975.006
975.004
974.998
974.989
974.979
974.968
974.959
974.951
974.947
974.949
974.959
974.977
975.007
975.05
975.107
975.182
975.274
975.386
975.52
975.674
975.851
976.05
976.273
976.517
976.784
977.071
977.378
977.704
978.047
978.406
978.778
979.162
979.555
979.957
980.364
980.776
981.189
981.603
982.015
982.425
982.831
983.23
983.624
984.009
984.386
984.753
985.111
985.457
985.792
986.116
986.427
986.727
987.015
987.29
987.553
987.804
988.043
988.27
988.486
988.69
988.883
989.066
989.237
989.398
989.55
989.691
989.822
989.944
990.055
990.158
990.251
990.335
990.409
990.473
990.527
990.57
990.603
990.625
990.635
990.633
990.617
990.589
990.546
990.488
990.414
990.323
990.215
990.088
989.942
989.776
989.59
989.385
989.159
988.914
988.649
988.365
988.063
987.745
987.411
987.064
986.704
986.333
985.954
985.569
985.178
984.786
984.393
984.001
983.614
983.231
982.855
982.488
982.131
981.787
981.456
981.139
980.838
980.553
980.285
980.033
979.8
979.583
979.381
979.194
979.023
978.86
978.702
978.56
978.422
978.264
978.112
977.98
977.802
977.586
977.42
977.229
976.938
976.68
976.465
976.17
975.847
975.598
975.351
975.027
1016.78
1016.75
1016.69
1016.58
1016.44
1016.32
1016.12
1015.91
1015.74
1015.53
1015.29
1015.08
1014.87
1014.64
1014.42
1014.2
1013.98
1013.75
1013.54
1013.31
1013.09
1012.86
1012.63
1012.4
1012.16
1011.91
1011.66
1011.41
1011.15
1010.87
1010.59
1010.3
1010
1009.69
1009.36
1009.02
1008.67
1008.3
1007.92
1007.52
1007.1
1006.66
1006.21
1005.73
1005.23
1004.71
1004.17
1003.6
1003.01
1002.4
1001.77
1001.11
1000.42
999.719
998.992
998.242
997.474
996.686
995.881
995.062
994.231
993.389
992.539
991.686
990.831
989.977
989.129
988.29
987.462
986.648
985.852
985.076
984.323
983.596
982.894
982.221
981.578
980.964
980.381
979.829
979.308
978.818
978.358
977.926
977.524
977.149
976.801
976.477
976.178
975.901
975.646
975.411
975.195
974.996
974.814
974.648
974.496
974.357
974.231
974.117
974.013
973.919
973.834
973.758
973.69
973.63
973.576
973.529
973.487
973.451
973.42
973.394
973.372
973.354
973.341
973.332
973.327
973.325
973.327
973.333
973.341
973.354
973.37
973.389
973.413
973.439
973.469
973.502
973.539
973.579
973.623
973.67
973.719
973.772
973.827
973.885
973.945
974.007
974.07
974.134
974.198
974.262
974.326
974.389
974.451
974.51
974.566
974.619
974.668
974.713
974.753
974.789
974.819
974.844
974.864
974.878
974.888
974.894
974.896
974.895
974.892
974.888
974.885
974.883
974.886
974.894
974.909
974.933
974.969
975.017
975.08
975.16
975.257
975.375
975.512
975.671
975.852
976.056
976.282
976.53
976.8
977.09
977.4