# vtk DataFile Version 2.0
LBE mesh
ASCII
DATASET STRUCTURED_POINTS
DIMENSIONS 300 100 1
ASPECT_RATIO 1 1 1
ORIGIN 0 0 0
POINT_DATA 30000
SCALARS rho double 1
LOOKUP_TABLE default
1046.26
1014.48
1013.75
1020.23
1018.38
1014.45
1014.24
1014.73
1013.94
1013.12
1012.93
1012.74
1012.35
1012.01
1011.79
1011.55
1011.27
1011.02
1010.79
1010.55
1010.3
1010.05
1009.81
1009.56
1009.3
1009.04
1008.77
1008.5
1008.21
1007.92
1007.62
1007.31
1006.99
1006.66
1006.32
1005.97
1005.6
1005.22
1004.82
1004.42
1003.99
1003.55
1003.1
1002.63
1002.14
1001.63
1001.11
1000.57
1000.01
999.432
998.837
998.225
997.595
996.948
996.284
995.605
994.911
994.202
993.481
992.747
992.003
991.25
990.489
989.723
988.952
988.179
987.406
986.634
985.866
985.103
984.348
983.602
982.867
982.145
981.437
980.745
980.071
979.416
978.78
978.165
977.571
977
976.451
975.925
975.422
974.943
974.487
974.055
973.645
973.258
972.894
972.552
972.231
971.931
971.651
971.391
971.151
970.929
970.725
970.539
970.369
970.216
970.079
969.958
969.851
969.758
969.679
969.614
969.561
969.522
969.495
969.479
969.475
969.483
969.501
969.531
969.571
969.621
969.681
969.751
969.831
969.92
970.018
970.125
970.241
970.366
970.499
970.64
970.79
970.948
971.114
971.288
971.469
971.658
971.854
972.058
972.269
972.486
972.711
972.942
973.179
973.422
973.671
973.926
974.186
974.451
974.72
974.994
975.272
975.552
975.836
976.122
976.41
976.699
976.989
977.279
977.568
977.856
978.143
978.426
978.707
978.984
979.256
979.524
979.786
980.041
980.289
980.53
980.762
980.986
981.201
981.406
981.601
981.786
981.96
982.124
982.275
982.416
982.545
982.663
982.768
982.862
982.944
983.015
983.073
983.12
983.154
983.177
983.189
983.188
983.175
983.151
983.114
983.066
983.005
982.931
982.844
982.745
982.632
982.506
982.366
982.212
982.044
981.863
981.667
981.458
981.235
981.001
980.753
980.495
980.227
979.95
979.665
979.374
979.078
978.78
978.481
978.184
977.889
977.601
977.321
977.052
976.795
976.553
976.328
976.123
975.939
975.778
975.641
975.529
975.445
975.388
975.36
975.36
975.388
975.445
975.528
975.639
975.774
975.935
976.117
976.32
976.543
976.782
977.035
977.302
977.579
977.864
978.155
978.45
978.746
979.042
979.336
979.625
979.908
980.183
980.449
980.704
980.948
981.178
981.394
981.595
981.78
981.949
982.101
982.236
982.353
982.452
982.534
982.597
982.642
982.669
982.678
982.669
982.643
982.598
982.536
982.456
982.357
982.24
982.106
981.948
981.771
981.579
981.36
981.097
980.827
980.555
980.171
979.711
979.404
978.97
977.96
977.288
977.459
975.527
971.756
973.88
974.738
951.104
1029.11
1025.55
1021.44
1016.22
1016.39
1016.53
1015.34
1014.16
1013.9
1013.63
1013.13
1012.71
1012.45
1012.17
1011.86
1011.59
1011.34
1011.09
1010.83
1010.58
1010.33
1010.08
1009.83
1009.57
1009.31
1009.05
1008.78
1008.5
1008.21
1007.92
1007.62
1007.3
1006.98
1006.65
1006.3
1005.95
1005.58
1005.19
1004.8
1004.39
1003.96
1003.52
1003.06
1002.59
1002.1
1001.59
1001.07
1000.52
999.964
999.386
998.791
998.178
997.547
996.9
996.237
995.557
994.863
994.155
993.434
992.702
991.959
991.207
990.449
989.684
988.916
988.145
987.375
986.605
985.84
985.081
984.328
983.586
982.854
982.135
981.431
980.743
980.072
979.42
978.787
978.176
977.585
977.016
976.47
975.947
975.447
974.971
974.517
974.086
973.679
973.294
972.931
972.59
972.27
971.971
971.693
971.434
971.194
970.973
970.77
970.584
970.415
970.263
970.126
970.004
969.897
969.805
969.726
969.661
969.608
969.569
969.541
969.526
969.522
969.529
969.547
969.577
969.616
969.666
969.726
969.795
969.875
969.963
970.061
970.167
970.283
970.407
970.539
970.68
970.829
970.986
971.151
971.324
971.504
971.692
971.887
972.09
972.299
972.516
972.739
972.969
973.205
973.447
973.695
973.949
974.207
974.471
974.739
975.012
975.288
975.568
975.85
976.135
976.422
976.71
976.999
977.288
977.576
977.863
978.148
978.432
978.711
978.987
979.259
979.526
979.787
980.042
980.29
980.53
980.762
980.986
981.201
981.406
981.601
981.785
981.96
982.123
982.275
982.416
982.545
982.663
982.768
982.862
982.944
983.015
983.073
983.12
983.155
983.178
983.189
983.189
983.176
983.152
983.116
983.067
983.007
982.933
982.848
982.749
982.637
982.512
982.374
982.221
982.055
981.875
981.681
981.474
981.254
981.022
980.777
980.521
980.255
979.98
979.697
979.408
979.114
978.817
978.52
978.223
977.93
977.642
977.362
977.093
976.836
976.593
976.367
976.16
975.974
975.811
975.672
975.558
975.471
975.411
975.379
975.376
975.401
975.454
975.534
975.641
975.773
975.93
976.109
976.309
976.529
976.765
977.016
977.28
977.555
977.838
978.127
978.42
978.715
979.01
979.302
979.59
979.873
980.147
980.413
980.668
980.911
981.142
981.358
981.559
981.745
981.914
982.067
982.202
982.319
982.419
982.501
982.564
982.61
982.637
982.646
982.637
982.61
982.565
982.502
982.421
982.321
982.202
982.064
981.908
981.729
981.524
981.301
981.055
980.762
980.434
980.112
979.712
979.165
978.664
978.227
977.259
976.001
975.548
974.438
970.331
966.578
964.548
1020.99
1025.8
1021.11
1016.79
1017.02
1016.73
1015.32
1014.36
1014.14
1013.78
1013.23
1012.83
1012.56
1012.26
1011.94
1011.66
1011.4
1011.14
1010.88
1010.63
1010.37
1010.12
1009.86
1009.6
1009.34
1009.07
1008.79
1008.51
1008.22
1007.93
1007.62
1007.31
1006.98
1006.65
1006.3
1005.94
1005.57
1005.19
1004.79
1004.37
1003.95
1003.5
1003.04
1002.57
1002.08
1001.57
1001.04
1000.5
999.936
999.357
998.76
998.145
997.513
996.864
996.2
995.519
994.824
994.115
993.394
992.66
991.917
991.165
990.406
989.641
988.873
988.102
987.332
986.564
985.8
985.041
984.29
983.549
982.819
982.102
981.4
980.714
980.045
979.396
978.765
978.156
977.568
977.002
976.459
975.938
975.441
974.967
974.516
974.087
973.682
973.299
972.939
972.6
972.282
971.985
971.708
971.451
971.213
970.993
970.791
970.607
970.439
970.287
970.151
970.031
969.925
969.832
969.754
969.689
969.638
969.598
969.571
969.556
969.552
969.56
969.578
969.607
969.647
969.697
969.756
969.826
969.905
969.994
970.091
970.197
970.312
970.436
970.568
970.708
970.857
971.013
971.178
971.35
971.53
971.717
971.911
972.113
972.322
972.538
972.76
972.989
973.224
973.465
973.712
973.965
974.223
974.486
974.753
975.025
975.3
975.579
975.861
976.145
976.432
976.719
977.007
977.296
977.584
977.871
978.156
978.439
978.718
978.994
979.266
979.533
979.794
980.049
980.297
980.537
980.77
980.994
981.209
981.414
981.609
981.794
981.969
982.133
982.285
982.427
982.556
982.674
982.78
982.874
982.956
983.027
983.085
983.132
983.167
983.19
983.202
983.202
983.189
983.165
983.129
983.082
983.022
982.949
982.864
982.767
982.656
982.532
982.395
982.244
982.08
981.901
981.709
981.504
981.286
981.055
980.812
980.557
980.292
980.018
979.736
979.447
979.153
978.856
978.558
978.26
977.966
977.676
977.394
977.122
976.862
976.617
976.388
976.177
975.988
975.821
975.678
975.561
975.47
975.407
975.372
975.365
975.387
975.437
975.515
975.619
975.749
975.904
976.081
976.28
976.498
976.733
976.984
977.247
977.522
977.805
978.094
978.388
978.683
978.978
979.271
979.56
979.844
980.119
980.386
980.642
980.887
981.118
981.335
981.538
981.724
981.894
982.048
982.184
982.302
982.403
982.485
982.549
982.595
982.622
982.632
982.622
982.595
982.55
982.487
982.404
982.304
982.185
982.044
981.886
981.709
981.501
981.269
981.03
980.75
980.39
980.049
979.734
979.171
978.481
978.22
977.641
975.752
974.995
975.943
971.702
966.151
970.237
1020.71
1019.44
1018.89
1020.07
1017.54
1015.43
1015.37
1015.28
1014.35
1013.63
1013.38
1013.1
1012.67
1012.31
1012.05
1011.77
1011.48
1011.21
1010.95
1010.69
1010.43
1010.17
1009.91
1009.65
1009.38
1009.11
1008.83
1008.55
1008.26
1007.96
1007.65
1007.33
1007
1006.67
1006.32
1005.96
1005.58
1005.2
1004.8
1004.38
1003.95
1003.51
1003.05
1002.57
1002.07
1001.56
1001.03
1000.49
999.923
999.341
998.742
998.125
997.49
996.838
996.17
995.487
994.789
994.077
993.353
992.616
991.87
991.115
990.353
989.586
988.815
988.043
987.27
986.5
985.734
984.975
984.223
983.481
982.751
982.034
981.333
980.648
979.98
979.332
978.704
978.097
977.511
976.947
976.407
975.889
975.395
974.924
974.476
974.051
973.649
973.269
972.912
972.576
972.261
971.967
971.692
971.438
971.202
970.984
970.784
970.602
970.436
970.286
970.151
970.032
969.927
969.836
969.76
969.696
969.645
969.607
969.58
969.566
969.563
969.571
969.59
969.62
969.66
969.71
969.77
969.84
969.919
970.008
970.106
970.212
970.327
970.451
970.583
970.723
970.872
971.028
971.193
971.365
971.544
971.731
971.925
972.126
972.335
972.551
972.773
973.001
973.236
973.477
973.723
973.976
974.233
974.496
974.763
975.034
975.31
975.588
975.87
976.154
976.44
976.728
977.016
977.305
977.593
977.88
978.166
978.449
978.729
979.006
979.278
979.546
979.808
980.063
980.312
980.553
980.786
981.01
981.226
981.432
981.628
981.814
981.989
982.153
982.306
982.448
982.578
982.696
982.803
982.897
982.98
983.05
983.109
983.156
983.191
983.215
983.227
983.226
983.214
983.191
983.156
983.108
983.049
982.978
982.894
982.797
982.688
982.566
982.43
982.28
982.117
981.94
981.75
981.546
981.329
981.098
980.856
980.601
980.336
980.061
979.778
979.488
979.192
978.893
978.592
978.292
977.993
977.7
977.414
977.137
976.872
976.622
976.388
976.173
975.978
975.807
975.659
975.538
975.443
975.376
975.338
975.328
975.348
975.396
975.471
975.574
975.703
975.857
976.035
976.233
976.452
976.688
976.94
977.205
977.481
977.766
978.058
978.353
978.651
978.948
979.243
979.535
979.82
980.098
980.367
980.625
980.872
981.105
981.324
981.528
981.717
981.888
982.043
982.181
982.3
982.401
982.484
982.549
982.595
982.623
982.633
982.624
982.596
982.551
982.488
982.405
982.304
982.185
982.047
981.885
981.705
981.51
981.28
981.014
980.75
980.458
980.053
979.64
979.331
978.777
977.898
977.502
977.171
975.343
973.789
973.999
973.18
971.337
1020.71
1018.52
1018.44
1018.32
1016.83
1016.4
1015.83
1014.96
1014.33
1014.02
1013.62
1013.15
1012.78
1012.49
1012.18
1011.87
1011.59
1011.32
1011.05
1010.78
1010.52
1010.25
1009.99
1009.72
1009.45
1009.17
1008.89
1008.61
1008.31
1008.01
1007.7
1007.38
1007.05
1006.71
1006.36
1006
1005.62
1005.23
1004.83
1004.41
1003.98
1003.53
1003.07
1002.59
1002.09
1001.58
1001.04
1000.49
999.926
999.34
998.736
998.115
997.476
996.819
996.147
995.458
994.755
994.037
993.307
992.565
991.813
991.053
990.285
989.512
988.736
987.959
987.182
986.407
985.638
984.874
984.119
983.375
982.643
981.925
981.223
980.537
979.87
979.223
978.596
977.99
977.407
976.846
976.308
975.794
975.303
974.836
974.391
973.971
973.573
973.197
972.843
972.511
972.2
971.91
971.639
971.388
971.155
970.941
970.744
970.564
970.401
970.254
970.121
970.004
969.901
969.813
969.737
969.676
969.626
969.589
969.565
969.551
969.55
969.559
969.58
969.611
969.652
969.703
969.764
969.835
969.915
970.005
970.103
970.21
970.326
970.451
970.584
970.724
970.873
971.03
971.195
971.368
971.548
971.735
971.93
972.131
972.34
972.556
972.778
973.007
973.242
973.483
973.73
973.982
974.24
974.503
974.77
975.042
975.318
975.597
975.879
976.164
976.451
976.739
977.028
977.317
977.606
977.894
978.181
978.465
978.746
979.024
979.297
979.565
979.828
980.085
980.335
980.577
980.811
981.037
981.253
981.46
981.657
981.844
982.02
982.185
982.338
982.481
982.611
982.73
982.837
982.932
983.014
983.085
983.144
983.191
983.227
983.251
983.263
983.263
983.251
983.228
983.193
983.147
983.088
983.018
982.935
982.839
982.731
982.61
982.476
982.328
982.166
981.99
981.8
981.597
981.38
981.15
980.906
980.651
980.384
980.107
979.822
979.528
979.229
978.926
978.62
978.314
978.011
977.711
977.419
977.136
976.865
976.608
976.367
976.146
975.946
975.768
975.615
975.489
975.39
975.32
975.278
975.266
975.283
975.33
975.405
975.508
975.637
975.792
975.971
976.171
976.392
976.631
976.886
977.154
977.433
977.722
978.017
978.316
978.617
978.918
979.217
979.512
979.801
980.083
980.355
980.616
980.865
981.101
981.323
981.529
981.72
981.894
982.05
982.189
982.31
982.412
982.496
982.562
982.609
982.638
982.647
982.639
982.612
982.567
982.504
982.423
982.322
982.203
982.068
981.911
981.729
981.533
981.322
981.064
980.775
980.513
980.19
979.717
979.338
979.076
978.323
977.437
977.464
976.799
974.697
974.571
974.805
973.093
1018.61
1018.63
1018.21
1016.72
1016.85
1016.69
1015.5
1014.86
1014.68
1014.24
1013.64
1013.27
1013
1012.66
1012.3
1012
1011.73
1011.45
1011.17
1010.9
1010.63
1010.36
1010.09
1009.82
1009.55
1009.27
1008.98
1008.69
1008.4
1008.09
1007.78
1007.46
1007.13
1006.78
1006.43
1006.06
1005.69
1005.29
1004.89
1004.47
1004.03
1003.58
1003.12
1002.63
1002.13
1001.61
1001.07
1000.52
999.946
999.354
998.744
998.116
997.47
996.807
996.127
995.431
994.72
993.994
993.255
992.505
991.745
990.976
990.199
989.418
988.634
987.848
987.064
986.282
985.506
984.737
983.977
983.228
982.492
981.77
981.065
980.379
979.711
979.063
978.437
977.833
977.251
976.693
976.158
975.648
975.161
974.698
974.259
973.843
973.449
973.079
972.73
972.403
972.097
971.811
971.545
971.299
971.07
970.86
970.667
970.491
970.331
970.187
970.058
969.944
969.844
969.758
969.685
969.625
969.579
969.544
969.521
969.51
969.51
969.521
969.543
969.576
969.619
969.672
969.735
969.808
969.89
969.981
970.081
970.19
970.307
970.433
970.568
970.71
970.861
971.019
971.185
971.359
971.54
971.729
971.925
972.128
972.338
972.554
972.778
973.007
973.243
973.486
973.733
973.987
974.246
974.51
974.778
975.051
975.328
975.608
975.891
976.177
976.465
976.754
977.044
977.335
977.625
977.914
978.202
978.488
978.77
979.049
979.323
979.593
979.857
980.115
980.366
980.61
980.845
981.072
981.29
981.497
981.696
981.883
982.06
982.226
982.381
982.524
982.655
982.774
982.882
982.977
983.06
983.131
983.19
983.238
983.273
983.297
983.309
983.31
983.298
983.275
983.241
983.195
983.138
983.068
982.986
982.892
982.784
982.664
982.531
982.384
982.223
982.047
981.858
981.654
981.437
981.205
980.961
980.703
980.434
980.154
979.863
979.565
979.261
978.951
978.639
978.327
978.016
977.709
977.409
977.118
976.839
976.574
976.326
976.098
975.89
975.707
975.549
975.417
975.314
975.24
975.196
975.182
975.198
975.244
975.319
975.423
975.554
975.712
975.893
976.097
976.321
976.564
976.823
977.095
977.38
977.673
977.973
978.276
978.583
978.888
979.192
979.492
979.785
980.071
980.347
980.612
980.865
981.105
981.33
981.539
981.732
981.908
982.067
982.208
982.331
982.435
982.52
982.587
982.635
982.665
982.675
982.668
982.642
982.598
982.536
982.456
982.359
982.242
982.106
981.956
981.786
981.585
981.373
981.157
980.884
980.565
980.308
980.005
979.481
979.074
978.915
978.214
977.255
977.216
976.972
975.828
975.208
975.387
1017.57
1017.95
1017.47
1016.82
1016.62
1015.87
1015.49
1015.23
1014.66
1014.12
1013.82
1013.52
1013.11
1012.75
1012.47
1012.18
1011.88
1011.58
1011.31
1011.04
1010.77
1010.49
1010.22
1009.95
1009.67
1009.39
1009.1
1008.81
1008.51
1008.2
1007.89
1007.56
1007.23
1006.88
1006.53
1006.16
1005.78
1005.38
1004.97
1004.55
1004.11
1003.66
1003.19
1002.7
1002.19
1001.67
1001.12
1000.56
999.982
999.383
998.765
998.129
997.474
996.802
996.112
995.406
994.684
993.947
993.197
992.435
991.663
990.883
990.095
989.302
988.507
987.711
986.916
986.124
985.339
984.561
983.793
983.038
982.296
981.57
980.861
980.171
979.501
978.853
978.227
977.624
977.044
976.489
975.958
975.451
974.969
974.511
974.077
973.666
973.279
972.914
972.572
972.251
971.951
971.67
971.411
971.169
970.946
970.741
970.553
970.381
970.225
970.085
969.96
969.849
969.753
969.67
969.6
969.543
969.499
969.467
969.447
969.438
969.441
969.455
969.479
969.514
969.56
969.616
969.681
969.756
969.841
969.934
970.037
970.149
970.269
970.398
970.534
970.68
970.833
970.994
971.162
971.338
971.522
971.713
971.911
972.117
972.329
972.548
972.773
973.005
973.243
973.487
973.737
973.992
974.253
974.519
974.789
975.063
975.342
975.624
975.909
976.196
976.486
976.776
977.068
977.36
977.652
977.943
978.232
978.519
978.803
979.083
979.359
979.63
979.896
980.155
980.407
980.651
980.888
981.117
981.335
981.544
981.743
981.932
982.11
982.277
982.432
982.575
982.707
982.828
982.935
983.031
983.114
983.186
983.245
983.293
983.329
983.352
983.365
983.366
983.354
983.332
983.298
983.252
983.195
983.126
983.045
982.951
982.844
982.725
982.592
982.445
982.284
982.109
981.919
981.715
981.496
981.262
981.015
980.754
980.481
980.196
979.901
979.597
979.285
978.969
978.648
978.327
978.008
977.692
977.383
977.083
976.795
976.522
976.266
976.03
975.816
975.626
975.462
975.326
975.219
975.142
975.095
975.08
975.095
975.142
975.218
975.324
975.458
975.618
975.803
976.011
976.24
976.488
976.752
977.03
977.32
977.619
977.925
978.235
978.547
978.858
979.168
979.473
979.772
980.062
980.343
980.614
980.871
981.114
981.343
981.556
981.752
981.931
982.093
982.236
982.361
982.467
982.554
982.623
982.672
982.703
982.716
982.71
982.686
982.644
982.584
982.506
982.411
982.301
982.169
982.02
981.86
981.679
981.465
981.249
981.034
980.743
980.425
980.205
979.89
979.352
979.077
978.942
978.198
977.643
977.709
977.21
976.741
976.911
1017.3
1016.99
1016.75
1016.87
1016.23
1015.64
1015.53
1015.09
1014.57
1014.26
1013.96
1013.56
1013.2
1012.92
1012.63
1012.31
1012.02
1011.75
1011.47
1011.19
1010.92
1010.65
1010.37
1010.1
1009.82
1009.53
1009.25
1008.95
1008.65
1008.34
1008.02
1007.7
1007.36
1007.01
1006.65
1006.28
1005.9
1005.5
1005.09
1004.66
1004.22
1003.76
1003.28
1002.79
1002.27
1001.74
1001.19
1000.62
1000.03
999.426
998.799
998.152
997.487
996.803
996.101
995.382
994.647
993.897
993.133
992.357
991.57
990.775
989.973
989.166
988.356
987.546
986.738
985.934
985.137
984.348
983.57
982.806
982.056
981.324
980.61
979.916
979.244
978.594
977.967
977.365
976.787
976.235
975.707
975.205
974.728
974.275
973.847
973.443
973.063
972.705
972.369
972.055
971.762
971.489
971.235
971
970.783
970.583
970.401
970.234
970.083
969.948
969.827
969.72
969.628
969.549
969.482
969.429
969.388
969.359
969.342
969.336
969.342
969.359
969.386
969.425
969.473
969.532
969.601
969.679
969.767
969.864
969.97
970.086
970.21
970.342
970.483
970.632
970.789
970.954
971.126
971.306
971.494
971.689
971.891
972.099
972.315
972.537
972.766
973.001
973.242
973.49
973.742
974.001
974.264
974.533
974.805
975.082
975.363
975.647
975.934
976.224
976.515
976.808
977.101
977.395
977.688
977.981
978.272
978.56
978.846
979.127
979.405
979.677
979.943
980.204
980.457
980.703
980.94
981.169
981.389
981.599
981.799
981.988
982.167
982.334
982.49
982.634
982.767
982.887
982.995
983.092
983.175
983.247
983.307
983.354
983.39
983.415
983.427
983.428
983.417
983.395
983.361
983.315
983.258
983.189
983.108
983.014
982.908
982.788
982.656
982.508
982.347
982.171
981.98
981.774
981.553
981.317
981.066
980.801
980.523
980.232
979.931
979.619
979.3
978.975
978.646
978.315
977.986
977.661
977.342
977.032
976.735
976.453
976.189
975.945
975.724
975.528
975.359
975.218
975.107
975.028
974.979
974.963
974.979
975.027
975.105
975.213
975.351
975.515
975.705
975.918
976.152
976.406
976.676
976.961
977.258
977.563
977.876
978.192
978.511
978.829
979.145
979.456
979.761
980.057
980.343
980.618
980.88
981.129
981.362
981.579
981.779
981.961
982.126
982.271
982.399
982.507
982.597
982.668
982.72
982.753
982.767
982.764
982.742
982.703
982.647
982.573
982.481
982.375
982.255
982.112
981.953
981.791
981.607
981.383
981.171
980.975
980.683
980.366
980.203
979.935
979.421
979.21
979.175
978.697
978.281
978.358
978.39
978.134
1016.84
1016.63
1016.5
1016.3
1015.9
1015.75
1015.34
1014.88
1014.66
1014.35
1013.94
1013.61
1013.36
1013.05
1012.73
1012.45
1012.18
1011.9
1011.62
1011.35
1011.08
1010.81
1010.53
1010.26
1009.98
1009.69
1009.4
1009.11
1008.81
1008.5
1008.18
1007.85
1007.51
1007.16
1006.8
1006.43
1006.04
1005.64
1005.22
1004.79
1004.34
1003.88
1003.4
1002.9
1002.38
1001.84
1001.28
1000.7
1000.1
999.485
998.846
998.187
997.509
996.812
996.095
995.361
994.61
993.844
993.063
992.27
991.466
990.653
989.833
989.009
988.182
987.356
986.532
985.713
984.901
984.099
983.309
982.534
981.775
981.034
980.314
979.615
978.939
978.287
977.66
977.058
976.482
975.933
975.409
974.912
974.44
973.994
973.573
973.176
972.803
972.453
972.125
971.819
971.534
971.268
971.022
970.793
970.583
970.39
970.214
970.053
969.908
969.777
969.661
969.559
969.471
969.395
969.333
969.283
969.245
969.22
969.206
969.204
969.213
969.233
969.264
969.306
969.359
969.421
969.494
969.576
969.668
969.77
969.881
970.001
970.13
970.267
970.413
970.567
970.729
970.899
971.077
971.262
971.455
971.655
971.862
972.076
972.297
972.524
972.758
972.997
973.243
973.494
973.751
974.014
974.281
974.553
974.829
975.109
975.393
975.68
975.97
976.263
976.556
976.851
977.146
977.442
977.737
978.031
978.323
978.613
978.9
979.182
979.461
979.734
980.001
980.262
980.516
980.762
981
981.23
981.45
981.66
981.86
982.05
982.229
982.397
982.553
982.697
982.83
982.951
983.059
983.155
983.239
983.311
983.371
983.419
983.455
983.479
983.492
983.492
983.481
983.459
983.425
983.38
983.322
983.253
983.172
983.078
982.971
982.851
982.718
982.57
982.407
982.23
982.037
981.828
981.604
981.365
981.11
980.84
980.556
980.259
979.951
979.631
979.304
978.969
978.631
978.291
977.952
977.616
977.287
976.968
976.662
976.37
976.098
975.847
975.619
975.417
975.243
975.098
974.984
974.902
974.853
974.837
974.854
974.902
974.983
975.095
975.237
975.406
975.6
975.819
976.06
976.32
976.597
976.889
977.193
977.506
977.826
978.15
978.475
978.8
979.123
979.441
979.752
980.054
980.346
980.627
980.894
981.147
981.385
981.606
981.81
981.996
982.164
982.314
982.445
982.556
982.648
982.722
982.776
982.812
982.829
982.829
982.811
982.775
982.722
982.654
982.57
982.469
982.354
982.228
982.08
981.919
981.761
981.579
981.358
981.169
980.997
980.716
980.455
980.354
980.11
979.747
979.673
979.616
979.377
979.361
979.459
979.518
1016.32
1016.34
1016.24
1015.89
1015.77
1015.58
1015.15
1014.9
1014.65
1014.29
1013.99
1013.73
1013.43
1013.12
1012.85
1012.59
1012.31
1012.04
1011.77
1011.51
1011.24
1010.97
1010.7
1010.43
1010.15
1009.86
1009.58
1009.28
1008.98
1008.67
1008.35
1008.02
1007.68
1007.33
1006.97
1006.59
1006.2
1005.8
1005.38
1004.94
1004.49
1004.02
1003.53
1003.02
1002.5
1001.95
1001.38
1000.8
1000.19
999.557
998.906
998.233
997.54
996.827
996.095
995.343
994.574
993.789
992.989
992.176
991.352
990.519
989.679
988.834
987.987
987.141
986.298
985.461
984.633
983.815
983.011
982.223
981.453
980.703
979.975
979.271
978.59
977.936
977.308
976.707
976.133
975.586
975.067
974.576
974.11
973.671
973.258
972.869
972.505
972.163
971.844
971.547
971.27
971.012
970.774
970.554
970.35
970.165
969.995
969.841
969.701
969.576
969.465
969.368
969.284
969.212
969.154
969.108
969.074
969.052
969.042
969.043
969.056
969.08
969.115
969.161
969.217
969.284
969.361
969.448
969.545
969.651
969.768
969.894
970.028
970.172
970.324
970.485
970.654
970.83
971.015
971.207
971.406
971.612
971.826
972.047
972.274
972.508
972.748
972.994
973.245
973.503
973.765
974.033
974.305
974.582
974.862
975.147
975.435
975.725
976.019
976.314
976.61
976.907
977.205
977.502
977.799
978.095
978.388
978.679
978.966
979.25
979.529
979.802
980.069
980.33
980.584
980.83
981.068
981.297
981.517
981.727
981.927
982.116
982.294
982.462
982.618
982.762
982.894
983.015
983.123
983.219
983.303
983.375
983.434
983.482
983.518
983.542
983.554
983.555
983.544
983.521
983.487
983.441
983.384
983.314
983.232
983.137
983.03
982.909
982.774
982.625
982.461
982.281
982.086
981.875
981.647
981.403
981.144
980.869
980.578
980.275
979.959
979.631
979.295
978.952
978.604
978.254
977.905
977.559
977.221
976.892
976.577
976.277
975.997
975.738
975.504
975.297
975.118
974.97
974.853
974.77
974.721
974.705
974.723
974.774
974.857
974.973
975.119
975.293
975.494
975.719
975.966
976.234
976.518
976.817
977.128
977.449
977.776
978.108
978.441
978.773
979.103
979.428
979.745
980.054
980.353
980.639
980.912
981.17
981.413
981.638
981.847
982.037
982.209
982.362
982.496
982.611
982.707
982.783
982.841
982.88
982.901
982.905
982.891
982.86
982.813
982.75
982.674
982.582
982.475
982.358
982.233
982.085
981.927
981.785
981.617
981.408
981.255
981.126
980.881
980.685
980.657
980.514
980.298
980.328
980.433
980.421
980.539
980.86
1016.02
1016.01
1015.9
1015.76
1015.6
1015.29
1015.1
1014.9
1014.55
1014.28
1014.06
1013.77
1013.48
1013.22
1012.97
1012.7
1012.43
1012.18
1011.92
1011.66
1011.39
1011.13
1010.87
1010.59
1010.32
1010.04
1009.75
1009.46
1009.16
1008.85
1008.53
1008.2
1007.86
1007.51
1007.15
1006.77
1006.38
1005.97
1005.55
1005.11
1004.65
1004.18
1003.68
1003.17
1002.64
1002.08
1001.5
1000.91
1000.28
999.642
998.977
998.289
997.58
996.85
996.099
995.328
994.539
993.733
992.911
992.075
991.228
990.372
989.508
988.641
987.771
986.902
986.038
985.18
984.333
983.497
982.677
981.875
981.092
980.332
979.595
978.884
978.199
977.541
976.912
976.311
975.74
975.198
974.684
974.198
973.74
973.309
972.904
972.525
972.17
971.838
971.529
971.241
970.973
970.725
970.496
970.284
970.089
969.911
969.748
969.6
969.467
969.348
969.242
969.15
969.07
969.003
968.949
968.906
968.876
968.858
968.851
968.856
968.872
968.9
968.939
968.988
969.049
969.12
969.203
969.295
969.398
969.51
969.633
969.765
969.906
970.057
970.216
970.385
970.561
970.746
970.939
971.139
971.346
971.561
971.784
972.013
972.248
972.49
972.738
972.991
973.251
973.515
973.784
974.058
974.337
974.619
974.906
975.195
975.488
975.783
976.08
976.379
976.678
976.978
977.279
977.578
977.876
978.173
978.467
978.759
979.047
979.33
979.609
979.881
980.149
980.409
980.662
980.906
981.143
981.371
981.589
981.798
981.997
982.184
982.362
982.528
982.682
982.825
982.956
983.076
983.183
983.278
983.362
983.433
983.492
983.539
983.575
983.598
983.61
983.611
983.599
983.576
983.542
983.495
983.437
983.366
983.283
983.188
983.079
982.957
982.82
982.669
982.503
982.321
982.123
981.908
981.677
981.429
981.164
980.883
980.588
980.277
979.953
979.618
979.274
978.922
978.565
978.205
977.847
977.492
977.145
976.807
976.484
976.176
975.889
975.624
975.384
975.172
974.989
974.838
974.72
974.635
974.586
974.571
974.59
974.644
974.731
974.851
975.002
975.181
975.388
975.619
975.874
976.148
976.44
976.746
977.065
977.394
977.729
978.068
978.409
978.749
979.086
979.418
979.742
980.057
980.362
980.654
980.933
981.196
981.444
981.674
981.887
982.082
982.258
982.416
982.553
982.672
982.771
982.851
982.913
982.956
982.982
982.99
982.981
982.956
982.916
982.86
982.791
982.711
982.617
982.508
982.396
982.278
982.136
981.995
981.877
981.729
981.555
981.453
981.365
981.195
981.106
981.133
981.1
981.102
981.249
981.436
981.705
982.085
1015.81
1015.74
1015.65
1015.6
1015.4
1015.19
1015.04
1014.77
1014.53
1014.32
1014.06
1013.79
1013.56
1013.32
1013.05
1012.8
1012.56
1012.31
1012.05
1011.8
1011.55
1011.29
1011.03
1010.76
1010.49
1010.22
1009.93
1009.64
1009.34
1009.04
1008.72
1008.39
1008.05
1007.7
1007.34
1006.96
1006.57
1006.16
1005.73
1005.29
1004.83
1004.35
1003.85
1003.33
1002.79
1002.22
1001.64
1001.03
1000.4
999.739
999.059
998.355
997.628
996.879
996.108
995.316
994.505
993.675
992.829
991.968
991.095
990.212
989.323
988.429
987.533
986.64
985.751
984.87
984.001
983.146
982.307
981.489
980.692
979.919
979.173
978.454
977.764
977.104
976.474
975.875
975.306
974.768
974.26
973.782
973.332
972.91
972.515
972.146
971.802
971.481
971.182
970.905
970.648
970.41
970.19
969.988
969.802
969.632
969.477
969.336
969.209
969.096
968.995
968.908
968.833
968.77
968.72
968.681
968.654
968.639
968.636
968.645
968.665
968.696
968.739
968.792
968.857
968.933
969.021
969.119
969.227
969.346
969.476
969.615
969.764
969.922
970.09
970.267
970.453
970.647
970.849
971.059
971.277
971.502
971.734
971.972
972.218
972.469
972.727
972.99
973.258
973.531
973.809
974.091
974.377
974.667
974.959
975.255
975.554
975.854
976.156
976.459
976.762
977.065
977.368
977.669
977.969
978.267
978.562
978.853
979.141
979.424
979.702
979.973
980.239
980.497
980.748
980.991
981.225
981.451
981.667
981.873
982.069
982.254
982.428
982.592
982.744
982.885
983.014
983.131
983.237
983.331
983.412
983.482
983.54
983.586
983.62
983.643
983.654
983.654
983.642
983.618
983.583
983.535
983.476
983.405
983.321
983.224
983.114
982.99
982.852
982.699
982.53
982.345
982.144
981.926
981.69
981.438
981.168
980.882
980.581
980.264
979.933
979.591
979.239
978.879
978.514
978.146
977.78
977.417
977.061
976.716
976.385
976.071
975.777
975.506
975.262
975.046
974.86
974.707
974.587
974.502
974.453
974.439
974.461
974.517
974.608
974.732
974.888
975.073
975.285
975.524
975.785
976.067
976.366
976.68
977.007
977.343
977.686
978.033
978.382
978.729
979.073
979.412
979.743
980.065
980.376
980.674
980.958
981.227
981.479
981.715
981.933
982.132
982.312
982.473
982.615
982.738
982.841
982.926
982.992
983.04
983.07
983.084
983.08
983.062
983.029
982.983
982.923
982.851
982.772
982.681
982.577
982.476
982.373
982.246
982.13
982.046
981.933
981.806
981.767
981.741
981.666
981.682
981.807
981.916
982.079
982.376
982.76
983.24
1015.59
1015.56
1015.5
1015.39
1015.24
1015.13
1014.92
1014.7
1014.53
1014.31
1014.06
1013.85
1013.62
1013.37
1013.14
1012.91
1012.67
1012.43
1012.19
1011.95
1011.7
1011.44
1011.19
1010.93
1010.66
1010.39
1010.11
1009.83
1009.53
1009.23
1008.91
1008.59
1008.25
1007.9
1007.54
1007.16
1006.77
1006.36
1005.93
1005.48
1005.02
1004.54
1004.03
1003.5
1002.95
1002.38
1001.78
1001.16
1000.52
999.847
999.151
998.43
997.684
996.915
996.123
995.307
994.471
993.615
992.742
991.854
990.952
990.041
989.122
988.199
987.275
986.353
985.437
984.531
983.637
982.759
981.901
981.064
980.251
979.466
978.709
977.982
977.287
976.624
975.993
975.396
974.83
974.298
973.797
973.327
972.887
972.476
972.092
971.735
971.402
971.094
970.807
970.542
970.296
970.07
969.861
969.669
969.492
969.33
969.183
969.05
968.93
968.823
968.728
968.646
968.576
968.517
968.47
968.435
968.412
968.4
968.4
968.412
968.435
968.47
968.516
968.574
968.644
968.725
968.817
968.921
969.036
969.161
969.298
969.445
969.602
969.769
969.947
970.133
970.329
970.533
970.746
970.967
971.196
971.432
971.676
971.926
972.182
972.445
972.714
972.987
973.266
973.55
973.838
974.129
974.424
974.723
975.023
975.327
975.632
975.938
976.246
976.553
976.86
977.167
977.473
977.777
978.078
978.377
978.672
978.964
979.251
979.533
979.809
980.078
980.341
980.597
980.845
981.084
981.315
981.537
981.749
981.951
982.143
982.324
982.495
982.654
982.802
982.939
983.065
983.179