# vtk DataFile Version 2.0
LBE mesh
ASCII
DATASET STRUCTURED_POINTS
DIMENSIONS 300 100 1
ASPECT_RATIO 1 1 1
ORIGIN 0 0 0
POINT_DATA 30000
SCALARS rho double 1
LOOKUP_TABLE default
1046.43
1014.69
1013.99
1020.49
1018.67
1014.76
1014.58
1015.1
1014.33
1013.54
1013.38
1013.22
1012.86
1012.55
1012.36
1012.14
1011.9
1011.67
1011.47
1011.25
1011.03
1010.81
1010.59
1010.37
1010.14
1009.9
1009.66
1009.4
1009.14
1008.88
1008.6
1008.31
1008.01
1007.7
1007.37
1007.03
1006.68
1006.32
1005.94
1005.54
1005.13
1004.7
1004.25
1003.79
1003.3
1002.8
1002.28
1001.74
1001.19
1000.61
1000.01
999.391
998.754
998.099
997.425
996.733
996.024
995.299
994.559
993.805
993.039
992.262
991.476
990.682
989.882
989.078
988.273
987.467
986.664
985.864
985.072
984.287
983.512
982.749
982
981.267
980.55
979.853
979.175
978.517
977.882
977.269
976.68
976.114
975.573
975.056
974.564
974.096
973.653
973.235
972.84
972.469
972.122
971.797
971.495
971.215
970.956
970.718
970.5
970.301
970.122
969.96
969.817
969.692
969.582
969.489
969.412
969.35
969.303
969.27
969.251
969.245
969.252
969.272
969.304
969.348
969.404
969.471
969.549
969.637
969.737
969.846
969.966
970.096
970.235
970.384
970.542
970.71
970.887
971.072
971.267
971.47
971.682
971.902
972.129
972.366
972.61
972.861
973.12
973.385
973.658
973.937
974.222
974.512
974.807
975.107
975.411
975.719
976.029
976.342
976.656
976.971
977.286
977.599
977.912
978.223
978.53
978.834
979.132
979.426
979.713
979.993
980.266
980.53
980.785
981.031
981.267
981.492
981.706
981.909
982.1
982.278
982.445
982.598
982.74
982.869
982.984
983.087
983.178
983.255
983.32
983.372
983.412
983.438
983.452
983.452
983.44
983.413
983.373
983.319
983.249
983.165
983.065
982.948
982.815
982.665
982.498
982.314
982.112
981.893
981.658
981.406
981.14
980.859
980.565
980.26
979.945
979.623
979.295
978.964
978.632
978.301
977.976
977.657
977.349
977.053
976.773
976.512
976.271
976.052
975.858
975.691
975.552
975.442
975.362
975.312
975.292
975.302
975.341
975.409
975.504
975.625
975.77
975.938
976.125
976.33
976.551
976.785
977.03
977.283
977.541
977.804
978.068
978.33
978.59
978.845
979.094
979.335
979.566
979.787
979.997
980.194
980.379
980.55
980.708
980.853
980.984
981.103
981.209
981.302
981.384
981.455
981.516
981.567
981.61
981.644
981.67
981.69
981.703
981.71
981.712
981.708
981.698
981.683
981.662
981.634
981.6
981.557
981.505
981.443
981.37
981.28
981.172
981.054
980.91
980.721
980.525
980.324
980.005
979.607
979.357
978.971
978
977.367
977.568
975.653
971.893
974.033
974.9
951.247
1029.3
1025.76
1021.68
1016.48
1016.68
1016.85
1015.68
1014.53
1014.3
1014.05
1013.58
1013.19
1012.96
1012.71
1012.43
1012.18
1011.96
1011.74
1011.51
1011.29
1011.07
1010.84
1010.61
1010.38
1010.15
1009.91
1009.66
1009.41
1009.14
1008.87
1008.59
1008.3
1007.99
1007.68
1007.35
1007.01
1006.66
1006.29
1005.91
1005.51
1005.1
1004.66
1004.22
1003.75
1003.27
1002.76
1002.24
1001.7
1001.14
1000.56
999.962
999.344
998.706
998.05
997.376
996.685
995.976
995.252
994.513
993.76
992.995
992.22
991.435
990.644
989.846
989.045
988.242
987.439
986.639
985.843
985.053
984.271
983.5
982.741
981.995
981.266
980.553
979.859
979.184
978.53
977.898
977.288
976.702
976.139
975.6
975.086
974.597
974.131
973.69
973.274
972.881
972.512
972.166
971.843
971.542
971.263
971.005
970.767
970.55
970.352
970.173
970.013
969.87
969.745
969.636
969.543
969.466
969.404
969.357
969.324
969.304
969.298
969.305
969.324
969.356
969.4
969.455
969.521
969.598
969.686
969.785
969.894
970.013
970.141
970.28
970.428
970.585
970.751
970.927
971.111
971.305
971.506
971.717
971.935
972.162
972.397
972.64
972.889
973.147
973.411
973.682
973.959
974.242
974.531
974.826
975.124
975.427
975.733
976.042
976.353
976.666
976.979
977.293
977.606
977.918
978.228
978.534
978.837
979.135
979.428
979.714
979.994
980.266
980.53
980.785
981.031
981.266
981.491
981.705
981.908
982.099
982.278
982.444
982.598
982.74
982.868
982.984
983.087
983.178
983.255
983.32
983.372
983.411
983.438
983.451
983.452
983.44
983.414
983.374
983.32
983.251
983.168
983.069
982.954
982.823
982.675
982.51
982.327
982.128
981.912
981.68
981.431
981.167
980.889
980.598
980.296
979.983
979.663
979.337
979.008
978.677
978.347
978.022
977.704
977.395
977.099
976.818
976.555
976.312
976.091
975.895
975.725
975.583
975.469
975.385
975.331
975.307
975.314
975.349
975.413
975.505
975.622
975.764
975.928
976.112
976.315
976.533
976.765
977.007
977.259
977.516
977.777
978.04
978.302
978.562
978.817
979.066
979.307
979.539
979.761
979.971
980.17
980.356
980.529
980.688
980.834
980.967
981.087
981.194
981.289
981.372
981.444
981.505
981.556
981.599
981.633
981.659
981.679
981.691
981.698
981.698
981.693
981.682
981.664
981.641
981.612
981.574
981.529
981.474
981.408
981.329
981.238
981.128
980.994
980.845
980.673
980.451
980.193
979.936
979.596
979.104
978.653
978.257
977.322
976.093
975.661
974.56
970.466
966.713
964.661
1021.19
1026.02
1021.35
1017.06
1017.31
1017.04
1015.67
1014.73
1014.54
1014.2
1013.68
1013.31
1013.07
1012.79
1012.51
1012.25
1012.03
1011.79
1011.56
1011.33
1011.11
1010.88
1010.65
1010.41
1010.17
1009.93
1009.68
1009.42
1009.16
1008.88
1008.6
1008.3
1008
1007.68
1007.35
1007.01
1006.65
1006.28
1005.9
1005.5
1005.08
1004.65
1004.2
1003.73
1003.24
1002.74
1002.21
1001.67
1001.11
1000.53
999.93
999.31
998.672
998.014
997.339
996.646
995.937
995.211
994.472
993.719
992.953
992.178
991.393
990.601
989.803
989.002
988.2
987.398
986.599
985.804
985.015
984.235
983.466
982.708
981.965
981.237
980.527
979.835
979.163
978.512
977.883
977.276
976.692
976.132
975.596
975.085
974.598
974.135
973.697
973.282
972.892
972.525
972.181
971.861
971.561
971.284
971.028
970.792
970.576
970.38
970.203
970.043
969.901
969.777
969.669
969.577
969.501
969.439
969.392
969.36
969.341
969.335
969.342
969.362
969.393
969.437
969.492
969.558
969.635
969.723
969.821
969.929
970.048
970.176
970.314
970.461
970.617
970.783
970.958
971.142
971.334
971.535
971.744
971.962
972.188
972.421
972.662
972.911
973.168
973.431
973.701
973.977
974.26
974.548
974.841
975.139
975.44
975.746
976.054
976.365
976.677
976.99
977.304
977.616
977.928
978.237
978.544
978.846
979.144
979.438
979.724
980.004
980.277
980.541
980.796
981.042
981.278
981.503
981.718
981.921
982.112
982.291
982.458
982.612
982.754
982.883
982.999
983.102
983.192
983.27
983.335
983.387
983.426
983.453
983.467
983.467
983.455
983.43
983.391
983.338
983.271
983.189
983.091
982.978
982.849
982.702
982.54
982.36
982.163
981.949
981.719
981.472
981.21
980.934
980.644
980.343
980.031
979.711
979.384
979.054
978.721
978.39
978.063
977.742
977.43
977.131
976.846
976.579
976.332
976.107
975.907
975.733
975.586
975.469
975.381
975.323
975.296
975.299
975.331
975.393
975.482
975.598
975.738
975.9
976.084
976.286
976.503
976.735
976.978
977.23
977.488
977.75
978.014
978.278
978.539
978.796
979.047
979.289
979.523
979.747
979.959
980.159
980.347
980.522
980.682
980.83
980.965
981.085
981.193
981.288
981.372
981.444
981.505
981.557
981.599
981.633
981.658
981.676
981.688
981.693
981.692
981.686
981.673
981.655
981.63
981.599
981.56
981.512
981.456
981.389
981.307
981.213
981.105
980.968
980.808
980.642
980.432
980.141
979.866
979.61
979.1
978.458
978.238
977.69
975.823
975.085
976.045
971.804
966.237
970.303
1020.91
1019.66
1019.14
1020.34
1017.84
1015.75
1015.72
1015.65
1014.75
1014.05
1013.83
1013.58
1013.18
1012.85
1012.61
1012.37
1012.1
1011.86
1011.63
1011.4
1011.16
1010.93
1010.7
1010.46
1010.22
1009.97
1009.72
1009.45
1009.19
1008.91
1008.62
1008.32
1008.02
1007.7
1007.37
1007.02
1006.66
1006.29
1005.91
1005.5
1005.08
1004.65
1004.2
1003.73
1003.24
1002.73
1002.21
1001.66
1001.1
1000.51
999.911
999.289
998.648
997.988
997.31
996.614
995.902
995.174
994.431
993.675
992.906
992.128
991.34
990.546
989.746
988.943
988.138
987.335
986.534
985.738
984.948
984.168
983.398
982.641
981.898
981.171
980.462
979.772
979.102
978.453
977.826
977.222
976.641
976.084
975.551
975.043
974.559
974.1
973.664
973.253
972.866
972.503
972.162
971.844
971.548
971.273
971.019
970.786
970.573
970.379
970.203
970.046
969.906
969.783
969.677
969.587
969.512
969.451
969.406
969.374
969.356
969.351
969.359
969.38
969.412
969.456
969.512
969.578
969.656
969.744
969.842
969.951
970.069
970.198
970.336
970.483
970.639
970.805
970.979
971.162
971.354
971.554
971.763
971.981
972.206
972.439
972.68
972.928
973.184
973.447
973.716
973.992
974.275
974.562
974.855
975.153
975.455
975.76
976.068
976.379
976.692
977.005
977.319
977.632
977.944
978.254
978.561
978.864
979.163
979.457
979.744
980.025
980.298
980.563
980.82
981.066
981.303
981.529
981.745
981.948
982.14
982.319
982.487
982.641
982.783
982.912
983.028
983.132
983.222
983.299
983.364
983.417
983.456
983.483
983.497
983.498
983.487
983.462
983.424
983.372
983.307
983.226
983.13
983.019
982.892
982.748
982.587
982.409
982.215
982.002
981.773
981.528
981.266
980.99
980.7
980.397
980.084
979.762
979.432
979.099
978.763
978.427
978.095
977.768
977.451
977.146
976.855
976.583
976.33
976.099
975.893
975.714
975.563
975.44
975.349
975.287
975.257
975.258
975.288
975.348
975.437
975.552
975.692
975.855
976.04
976.243
976.462
976.696
976.942
977.196
977.457
977.722
977.99
978.256
978.521
978.78
979.034
979.28
979.517
979.743
979.958
980.161
980.351
980.527
980.689
980.838
980.974
981.096
981.204
981.299
981.383
981.455
981.516
981.567
981.608
981.641
981.666
981.683
981.693
981.697
981.695
981.687
981.674
981.654
981.629
981.596
981.557
981.509
981.451
981.385
981.306
981.208
981.096
980.972
980.815
980.622
980.429
980.205
979.863
979.508
979.251
978.741
977.897
977.53
977.218
975.4
973.847
974.058
973.227
971.359
1020.91
1018.74
1018.68
1018.59
1017.13
1016.72
1016.17
1015.33
1014.73
1014.45
1014.08
1013.63
1013.29
1013.03
1012.75
1012.47
1012.21
1011.97
1011.73
1011.49
1011.25
1011.01
1010.77
1010.53
1010.28
1010.03
1009.78
1009.51
1009.24
1008.96
1008.67
1008.37
1008.06
1007.74
1007.41
1007.06
1006.7
1006.33
1005.94
1005.53
1005.11
1004.67
1004.22
1003.75
1003.25
1002.74
1002.22
1001.67
1001.1
1000.51
999.906
999.279
998.633
997.969
997.286
996.585
995.867
995.134
994.385
993.624
992.85
992.066
991.273
990.473
989.667
988.859
988.05
987.242
986.437
985.637
984.845
984.062
983.29
982.531
981.787
981.06
980.352
979.662
978.993
978.346
977.721
977.119
976.541
975.987
975.458
974.954
974.474
974.018
973.588
973.181
972.798
972.438
972.101
971.787
971.495
971.224
970.974
970.744
970.534
970.343
970.171
970.016
969.88
969.759
969.655
969.567
969.494
969.436
969.392
969.363
969.347
969.344
969.353
969.375
969.409
969.455
969.512
969.579
969.658
969.747
969.847
969.957
970.076
970.206
970.344
970.492
970.649
970.815
970.99
971.173
971.366
971.566
971.776
971.993
972.219
972.452
972.694
972.942
973.198
973.461
973.731
974.008
974.29
974.578
974.872
975.17
975.472
975.778
976.087
976.398
976.712
977.026
977.341
977.655
977.969
978.279
978.587
978.892
979.192
979.487
979.776
980.058
980.332
980.598
980.856
981.103
981.341
981.569
981.785
981.989
982.182
982.362
982.53
982.685
982.828
982.957
983.073
983.176
983.267
983.345
983.409
983.462
983.501
983.528
983.542
983.544
983.533
983.51
983.473
983.422
983.358
983.279
983.185
983.076
982.951
982.809
982.65
982.473
982.279
982.068
981.839
981.594
981.332
981.054
980.762
980.457
980.14
979.813
979.479
979.139
978.797
978.454
978.115
977.781
977.456
977.143
976.845
976.564
976.304
976.067
975.854
975.669
975.512
975.386
975.29
975.226
975.193
975.192
975.222
975.282
975.371
975.487
975.629
975.795
975.982
976.188
976.411
976.649
976.899
977.158
977.423
977.693
977.965
978.236
978.505
978.769
979.027
979.277
979.518
979.748
979.966
980.172
980.364
980.543
980.708
980.858
980.994
981.117
981.225
981.321
981.404
981.476
981.536
981.586
981.627
981.658
981.682
981.698
981.707
981.71
981.707
981.698
981.684
981.665
981.639
981.607
981.568
981.522
981.465
981.399
981.323
981.231
981.118
980.994
980.856
980.671
980.452
980.257
979.995
979.578
979.249
979.025
978.302
977.438
977.477
976.815
974.707
974.575
974.804
973.08
1018.82
1018.86
1018.46
1017
1017.14
1017.01
1015.85
1015.23
1015.08
1014.67
1014.1
1013.75
1013.51
1013.2
1012.87
1012.6
1012.36
1012.1
1011.84
1011.6
1011.36
1011.12
1010.88
1010.63
1010.38
1010.13
1009.87
1009.6
1009.32
1009.04
1008.75
1008.45
1008.14
1007.81
1007.48
1007.13
1006.76
1006.39
1005.99
1005.59
1005.16
1004.72
1004.26
1003.79
1003.29
1002.78
1002.24
1001.69
1001.12
1000.53
999.913
999.28
998.627
997.956
997.266
996.557
995.832
995.09
994.334
993.564
992.781
991.989
991.187
990.378
989.565
988.749
987.932
987.117
986.305
985.499
984.701
983.914
983.137
982.375
981.629
980.901
980.191
979.501
978.832
978.186
977.564
976.964
976.389
975.839
975.314
974.814
974.338
973.888
973.462
973.06
972.682
972.327
971.996
971.686
971.399
971.133
970.888
970.662
970.457
970.269
970.101
969.95
969.817
969.7
969.599
969.514
969.444
969.389
969.348
969.321
969.308
969.308
969.32
969.344
969.38
969.428
969.488
969.558
969.639
969.73
969.832
969.944
970.066
970.197
970.337
970.487
970.646
970.814
970.991
971.176
971.37
971.572
971.782
972.001
972.228
972.463
972.706
972.955
973.213
973.477
973.748
974.026
974.309
974.598
974.893
975.192
975.496
975.803
976.114
976.427
976.741
977.057
977.373
977.689
978.003
978.316
978.625
978.931
979.233
979.529
979.819
980.103
980.379
980.646
980.905
981.154
981.393
981.622
981.839
982.044
982.238
982.419
982.587
982.743
982.886
983.016
983.133
983.236
983.326
983.404
983.469
983.521
983.561
983.588
983.603
983.605
983.595
983.572
983.536
983.486
983.423
983.346
983.254
983.146
983.022
982.882
982.724
982.548
982.355
982.144
981.915
981.668
981.403
981.123
980.827
980.517
980.194
979.861
979.52
979.172
978.821
978.47
978.122
977.778
977.444
977.121
976.814
976.525
976.256
976.011
975.792
975.6
975.439
975.308
975.209
975.142
975.107
975.106
975.136
975.196
975.287
975.406
975.551
975.72
975.911
976.123
976.351
976.594
976.849
977.114
977.386
977.661
977.939
978.217
978.491
978.761
979.024
979.28
979.525
979.759
979.981
980.19
980.386
980.567
980.734
980.886
981.023
981.146
981.256
981.352
981.435
981.505
981.565
981.614
981.654
981.684
981.707
981.722
981.73
981.732
981.729
981.721
981.707
981.687
981.663
981.632
981.595
981.55
981.498
981.435
981.36
981.276
981.176
981.047
980.909
980.766
980.562
980.309
980.112
979.861
979.38
979.007
978.873
978.184
977.227
977.184
976.933
975.775
975.151
975.336
1017.77
1018.18
1017.72
1017.09
1016.92
1016.2
1015.84
1015.61
1015.06
1014.55
1014.27
1014
1013.62
1013.29
1013.03
1012.77
1012.5
1012.23
1011.99
1011.74
1011.5
1011.25
1011
1010.76
1010.5
1010.25
1009.98
1009.71
1009.44
1009.15
1008.86
1008.55
1008.24
1007.91
1007.57
1007.22
1006.85
1006.47
1006.08
1005.67
1005.24
1004.79
1004.33
1003.85
1003.35
1002.83
1002.29
1001.73
1001.15
1000.55
999.932
999.291
998.63
997.949
997.249
996.531
995.795
995.043
994.275
993.493
992.7
991.895
991.082
990.262
989.437
988.61
987.783
986.958
986.137
985.322
984.516
983.721
982.94
982.172
981.422
980.691
979.978
979.288
978.619
977.974
977.353
976.756
976.184
975.638
975.117
974.622
974.152
973.707
973.286
972.89
972.518
972.17
971.844
971.54
971.259
970.998
970.758
970.538
970.337
970.155
969.991
969.845
969.716
969.603
969.507
969.426
969.36
969.308
969.271
969.247
969.238
969.241
969.256
969.284
969.324
969.375
969.438
969.512
969.597
969.692
969.797
969.912
970.037
970.172
970.316
970.469
970.631
970.802
970.982
971.17
971.367
971.572
971.785
972.007
972.236
972.474
972.718
972.971
973.231
973.497
973.77
974.05
974.335
974.627
974.923
975.224
975.53
975.839
976.151
976.466
976.783
977.1
977.418
977.735
978.052
978.365
978.676
978.984
979.287
979.585
979.877
980.161
980.439
980.708
980.968
981.218
981.458
981.688
981.906
982.112
982.306
982.488
982.658
982.814
982.957
983.087
983.204
983.308
983.399
983.477
983.542
983.594
983.634
983.661
983.676
983.678
983.668
983.646
983.61
983.562
983.5
983.423
983.332
983.226
983.103
982.963
982.806
982.631
982.437
982.225
981.994
981.745
981.477
981.192
980.891
980.575
980.245
979.904
979.554
979.196
978.836
978.473
978.114
977.76
977.415
977.082
976.765
976.466
976.188
975.935
975.709
975.511
975.344
975.209
975.107
975.038
975.003
975.001
975.032
975.095
975.188
975.31
975.46
975.634
975.831
976.048
976.283
976.532
976.794
977.066
977.344
977.627
977.912
978.197
978.478
978.754
979.024
979.285
979.535
979.774
980.001
980.214
980.413
980.597
980.767
980.92
981.059
981.183
981.293
981.389
981.472
981.543
981.602
981.65
981.688
981.718
981.74
981.755
981.763
981.765
981.762
981.754
981.741
981.723
981.701
981.673
981.639
981.598
981.55
981.495
981.425
981.344
981.256
981.148
981.007
980.865
980.718
980.491
980.23
980.059
979.781
979.27
979.011
978.88
978.13
977.56
977.609
977.093
976.62
976.806
1017.5
1017.22
1017
1017.15
1016.53
1015.97
1015.89
1015.47
1014.97
1014.69
1014.42
1014.04
1013.71
1013.46
1013.19
1012.9
1012.64
1012.39
1012.15
1011.89
1011.64
1011.4
1011.15
1010.9
1010.65
1010.39
1010.12
1009.85
1009.57
1009.28
1008.99
1008.68
1008.36
1008.03
1007.69
1007.34
1006.97
1006.59
1006.19
1005.77
1005.34
1004.89
1004.42
1003.94
1003.43
1002.9
1002.36
1001.79
1001.2
1000.59
999.964
999.312
998.641
997.948
997.237
996.506
995.757
994.991
994.209
993.414
992.605
991.787
990.959
990.124
989.285
988.444
987.604
986.766
985.932
985.107
984.291
983.487
982.697
981.923
981.168
980.432
979.717
979.024
978.355
977.71
977.09
976.496
975.928
975.385
974.87
974.379
973.915
973.476
973.062
972.673
972.308
971.966
971.647
971.35
971.075
970.821
970.587
970.373
970.178
970.001
969.843
969.702
969.577
969.469
969.377
969.301
969.239
969.192
969.159
969.14
969.134
969.142
969.161
969.194
969.238
969.294
969.362
969.44
969.53
969.63
969.74
969.86
969.99
970.129
970.278
970.436
970.603
970.779
970.964
971.157
971.358
971.567
971.785
972.011
972.245
972.486
972.735
972.991
973.254
973.524
973.801
974.084
974.372
974.666
974.966
975.269
975.577
975.889
976.203
976.52
976.839
977.158
977.478
977.797
978.115
978.43
978.743
979.052
979.356
979.655
979.948
980.234
980.513
980.782
981.043
981.294
981.536
981.766
981.985
982.192
982.386
982.569
982.738
982.895
983.039
983.169
983.286
983.391
983.481
983.559
983.624
983.677
983.716
983.743
983.758
983.761
983.751
983.729
983.694
983.646
983.584
983.508
983.418
983.311
983.189
983.049
982.892
982.717
982.522
982.308
982.074
981.821
981.549
981.259
980.951
980.627
980.289
979.939
979.578
979.21
978.838
978.464
978.093
977.727
977.37
977.026
976.698
976.39
976.103
975.842
975.609
975.405
975.233
975.095
974.99
974.919
974.883
974.882
974.915
974.98
975.077
975.204
975.358
975.538
975.741
975.965
976.207
976.464
976.734
977.014
977.3
977.591
977.884
978.176
978.464
978.748
979.024
979.291
979.548
979.793
980.024
980.242
980.445
980.632
980.804
980.96
981.101
981.226
981.336
981.433
981.515
981.586
981.644
981.692
981.73
981.76
981.781
981.796
981.804
981.808
981.806
981.799
981.789
981.774
981.754
981.73
981.702
981.667
981.624
981.574
981.518
981.445
981.359
981.272
981.161
981.01
980.867
980.732
980.493
980.22
980.089
979.841
979.332
979.115
979.063
978.558
978.113
978.163
978.185
977.948
1017.05
1016.86
1016.76
1016.58
1016.21
1016.08
1015.69
1015.26
1015.06
1014.78
1014.4
1014.1
1013.87
1013.59
1013.29
1013.04
1012.8
1012.55
1012.29
1012.05
1011.81
1011.56
1011.31
1011.06
1010.8
1010.54
1010.28
1010.01
1009.73
1009.44
1009.14
1008.83
1008.51
1008.18
1007.84
1007.48
1007.11
1006.72
1006.32
1005.9
1005.46
1005.01
1004.54
1004.04
1003.53
1003
1002.44
1001.87
1001.27
1000.65
1000.01
999.345
998.66
997.955
997.229
996.483
995.719
994.936
994.138
993.325
992.5
991.663
990.818
989.966
989.11
988.252
987.395
986.542
985.694
984.855
984.027
983.212
982.413
981.63
980.868
980.127
979.407
978.712
978.042
977.397
976.779
976.187
975.622
975.085
974.574
974.09
973.632
973.2
972.793
972.411
972.054
971.72
971.408
971.119
970.851
970.604
970.377
970.169
969.98
969.81
969.657
969.521
969.402
969.299
969.212
969.141
969.084
969.041
969.013
968.999
968.998
969.011
969.035
969.073
969.123
969.184
969.257
969.342
969.437
969.544
969.66
969.786
969.923
970.069
970.225
970.389
970.563
970.746
970.937
971.137
971.345
971.561
971.784
972.017
972.256
972.503
972.757
973.019
973.287
973.561
973.843
974.13
974.422
974.72
975.023
975.33
975.641
975.955
976.272
976.592
976.912
977.234
977.555
977.876
978.195
978.512
978.826
979.135
979.44
979.74
980.034
980.32
980.599
980.87
981.131
981.383
981.624
981.854
982.073
982.28
982.475
982.658
982.828
982.984
983.128
983.258
983.376
983.48
983.571
983.648
983.713
983.766
983.805
983.832
983.847
983.85
983.84
983.817
983.782
983.734
983.672
983.596
983.505
983.399
983.276
983.136
982.978
982.801
982.604
982.387
982.15
981.893
981.615
981.318
981.003
980.671
980.324
979.963
979.591
979.212
978.828
978.442
978.059
977.681
977.312
976.957
976.618
976.3
976.004
975.735
975.495
975.286
975.109
974.967
974.86
974.789
974.753
974.753
974.788
974.856
974.957
975.089
975.248
975.435
975.645
975.876
976.126
976.391
976.669
976.958
977.253
977.552
977.853
978.153
978.45
978.741
979.025
979.299
979.562
979.812
980.049
980.271
980.478
980.669
980.844
981.003
981.145
981.272
981.383
981.48
981.564
981.634
981.693
981.741
981.779
981.809
981.831
981.846
981.856
981.861
981.861
981.857
981.85
981.839
981.824
981.805
981.782
981.755
981.721
981.679
981.631
981.577
981.503
981.418
981.335
981.225
981.07
980.94
980.817
980.574
980.338
980.248
980
979.617
979.512
979.413
979.132
979.072
979.144
979.212
1016.53
1016.58
1016.5
1016.17
1016.07
1015.91
1015.51
1015.29
1015.05
1014.72
1014.44
1014.22
1013.94
1013.66
1013.42
1013.18
1012.93
1012.68
1012.44
1012.21
1011.96
1011.72
1011.47
1011.22
1010.97
1010.71
1010.45
1010.17
1009.89
1009.61
1009.31
1009
1008.68
1008.34
1008
1007.64
1007.27
1006.88
1006.47
1006.05
1005.61
1005.15
1004.67
1004.17
1003.65
1003.11
1002.54
1001.96
1001.35
1000.72
1000.06
999.388
998.689
997.968
997.226
996.462
995.68
994.879
994.061
993.229
992.383
991.526
990.66
989.788
988.912
988.035
987.159
986.287
985.422
984.568
983.725
982.897
982.086
981.295
980.524
979.776
979.052
978.354
977.682
977.038
976.421
975.832
975.271
974.739
974.234
973.756
973.306
972.882
972.483
972.109
971.76
971.434
971.131
970.85
970.59
970.35
970.131
969.93
969.748
969.584
969.437
969.307
969.194
969.096
969.015
968.948
968.896
968.859
968.836
968.827
968.831
968.849
968.879
968.922
968.978
969.046
969.126
969.217
969.32
969.433
969.557
969.692
969.836
969.991
970.155
970.328
970.511
970.702
970.901
971.11
971.326
971.551
971.783
972.023
972.27
972.525
972.786
973.055
973.329
973.61
973.897
974.19
974.488
974.791
975.098
975.409
975.724
976.041
976.361
976.683
977.006
977.329
977.652
977.975
978.295
978.612
978.926
979.237
979.542
979.841
980.135
980.421
980.699
980.969
981.23
981.481
981.722
981.951
982.169
982.376
982.57
982.752
982.922
983.078
983.221
983.351
983.467
983.571
983.662
983.739
983.804
983.856
983.895
983.922
983.937
983.939
983.929
983.906
983.87
983.821
983.759
983.682
983.591
983.483
983.359
983.218
983.058
982.878
982.679
982.459
982.217
981.955
981.672
981.368
981.045
980.704
980.347
979.975
979.593
979.202
978.806
978.408
978.012
977.622
977.243
976.876
976.527
976.199
975.895
975.618
975.372
975.157
974.977
974.831
974.722
974.65
974.615
974.616
974.653
974.725
974.831
974.967
975.133
975.326
975.543
975.782
976.04
976.314
976.601
976.898
977.203
977.511
977.82
978.129
978.434
978.734
979.025
979.306
979.576
979.833
980.075
980.302
980.514
980.708
980.886
981.048
981.193
981.321
981.434
981.531
981.616
981.686
981.746
981.794
981.833
981.864
981.887
981.904
981.916
981.924
981.927
981.927
981.924
981.918
981.909
981.898
981.882
981.862
981.84
981.81
981.771
981.728
981.679
981.607
981.525
981.455
981.351
981.197
981.091
980.993
980.764
980.57
980.525
980.349
980.085
980.052
980.094
980.016
980.083
980.39
1016.24
1016.25
1016.16
1016.04
1015.91
1015.63
1015.46
1015.28
1014.96
1014.71
1014.51
1014.25
1013.98
1013.76
1013.53
1013.29
1013.05
1012.82
1012.59
1012.35
1012.11
1011.88
1011.64
1011.39
1011.14
1010.88
1010.62
1010.35
1010.07
1009.78
1009.48
1009.18
1008.85
1008.52
1008.18
1007.81
1007.44
1007.05
1006.64
1006.21
1005.77
1005.3
1004.82
1004.31
1003.78
1003.23
1002.66
1002.06
1001.44
1000.8
1000.13
999.44
998.725
997.987
997.226
996.444
995.642
994.82
993.98
993.125
992.256
991.376
990.487
989.592
988.693
987.793
986.895
986.003
985.119
984.246
983.386
982.544
981.72
980.917
980.137
979.383
978.653
977.952
977.279
976.634
976.019
975.433
974.877
974.35
973.852
973.382
972.94
972.524
972.135
971.77
971.43
971.114
970.819
970.547
970.296
970.065
969.853
969.66
969.485
969.328
969.187
969.063
968.956
968.864
968.787
968.726
968.679
968.647
968.629
968.625
968.635
968.658
968.694
968.744
968.806
968.881
968.968
969.067
969.178
969.3
969.433
969.576
969.731
969.895
970.069
970.252
970.445
970.647
970.857
971.076
971.303
971.538
971.78
972.031
972.288
972.552
972.822
973.099
973.382
973.672
973.966
974.265
974.57
974.879
975.191
975.507
975.826
976.148
976.471
976.796
977.121
977.446
977.771
978.094
978.414
978.732
979.046
979.356
979.661
979.959
980.251
980.536
980.813
981.081
981.34
981.59
981.828
982.056
982.272
982.476
982.669
982.849
983.017
983.172
983.313
983.442
983.558
983.66
983.75
983.827
983.891
983.942
983.981
984.007
984.021
984.023
984.012
983.988
983.952
983.902
983.838
983.761
983.667
983.558
983.433
983.289
983.127
982.945
982.742
982.518
982.272
982.004
981.714
981.404
981.073
980.723
980.356
979.975
979.582
979.18
978.772
978.363
977.955
977.554
977.164
976.787
976.428
976.091
975.779
975.495
975.243
975.023
974.839
974.69
974.58
974.507
974.472
974.475
974.515
974.591
974.7
974.842
975.015
975.214
975.439
975.686
975.953
976.235
976.531
976.837
977.151
977.468
977.787
978.105
978.418
978.726
979.025
979.313
979.59
979.853
980.102
980.334
980.55
980.748
980.93
981.094
981.241
981.371
981.486
981.585
981.67
981.742
981.802
981.852
981.893
981.925
981.95
981.97
981.985
981.996
982.003
982.008
982.011
982.011
982.01
982.006
982
981.99
981.977
981.961
981.938
981.904
981.87
981.83
981.764
981.693
981.638
981.543
981.408
981.332
981.253
981.072
980.953
980.929
980.83
980.747
980.803
980.895
981.078
981.401
1016.03
1015.98
1015.91
1015.88
1015.71
1015.52
1015.39
1015.16
1014.94
1014.75
1014.52
1014.27
1014.07
1013.85
1013.61
1013.39
1013.17
1012.95
1012.72
1012.49
1012.26
1012.03
1011.79
1011.55
1011.31
1011.05
1010.79
1010.53
1010.25
1009.96
1009.67
1009.36
1009.04
1008.71
1008.36
1008
1007.62
1007.23
1006.82
1006.39
1005.94
1005.47
1004.98
1004.47
1003.93
1003.37
1002.79
1002.18
1001.55
1000.89
1000.21
999.502
998.769
998.012
997.232
996.428
995.604
994.758
993.894
993.014
992.12
991.213
990.298
989.377
988.452
987.527
986.605
985.689
984.783
983.889
983.012
982.152
981.314
980.499
979.709
978.946
978.211
977.505
976.831
976.187
975.574
974.992
974.442
973.921
973.431
972.969
972.536
972.131
971.751
971.397
971.068
970.761
970.477
970.215
969.973
969.751
969.547
969.362
969.195
969.044
968.911
968.793
968.691
968.605
968.533
968.477
968.435
968.408
968.396
968.397
968.412
968.441
968.484
968.54
968.609
968.691
968.786
968.893
969.012
969.144
969.286
969.44
969.605
969.781
969.966
970.162
970.366
970.581
970.804
971.035
971.275
971.522
971.777
972.039
972.308
972.584
972.865
973.153
973.447
973.745
974.049
974.357
974.669
974.985
975.304
975.626
975.95
976.276
976.603
976.931
977.258
977.585
977.911
978.235
978.555
978.873
979.186
979.494
979.797
980.094
980.384
980.666
980.94
981.205
981.461
981.707
981.942
982.166
982.379
982.58
982.77
982.947
983.111
983.263
983.403
983.529
983.642
983.743
983.831
983.906
983.969
984.019
984.056
984.081
984.094
984.095
984.083
984.058
984.02
983.97
983.904
983.825
983.73
983.619
983.491
983.345
983.18
982.995
982.788
982.56
982.309
982.036
981.74
981.423
981.085
980.727
980.352
979.961
979.558
979.145
978.727
978.307
977.89
977.478
977.078
976.691
976.324
975.979
975.66
975.37
975.111
974.887
974.699
974.549
974.437
974.364
974.329
974.334
974.376
974.456
974.57
974.717
974.895
975.102
975.334
975.589
975.864
976.156
976.461
976.776
977.099
977.425
977.753
978.08
978.402
978.718
979.025
979.321
979.605
979.874
980.128
980.366
980.586
980.789
980.974
981.141
981.291
981.423
981.539
981.64
981.727
981.8
981.862
981.914
981.956
981.991
982.019
982.042
982.061
982.076
982.089
982.1
982.109
982.117
982.124
982.129
982.133
982.136
982.134
982.129
982.123
982.109
982.084
982.062
982.034
981.977
981.922
981.888
981.809
981.701
981.661
981.613
981.493
981.441
981.478
981.476
981.516
981.68
981.934
982.298
1015.81
1015.8
1015.76
1015.67
1015.55
1015.46
1015.28
1015.08
1014.94
1014.74
1014.52
1014.33
1014.13
1013.91
1013.7
1013.5
1013.28
1013.06
1012.85
1012.63
1012.41
1012.18
1011.95
1011.72
1011.47
1011.23
1010.97
1010.71
1010.43
1010.15
1009.86
1009.55
1009.23
1008.9
1008.56
1008.19
1007.82
1007.42
1007.01
1006.58
1006.12
1005.65
1005.15
1004.63
1004.09
1003.52
1002.93
1002.31
1001.67
1001
1000.3
999.572
998.821
998.043
997.241
996.415
995.565
994.695
993.804
992.896
991.973
991.038
990.094
989.143
988.189
987.236
986.286
985.345
984.414
983.498
982.599
981.722
980.867
980.038
979.237
978.465
977.725
977.016
976.34
975.697
975.087
974.51
973.966
973.453
972.971
972.52
972.097
971.703
971.335
970.993
970.675
970.38
970.107
969.855
969.623
969.411
969.217
969.04
968.881
968.737
968.611
968.499
968.404
968.323
968.257
968.205
968.169
968.147
968.139
968.145
968.166
968.201
968.249
968.311
968.388
968.477
968.58
968.696
968.825
968.966
969.12
969.285
969.462
969.649
969.848
970.056
970.275
970.503
970.74
970.986
971.24
971.502
971.771
972.047
972.33
972.62
972.914
973.214
973.52
973.83
974.144
974.462
974.784
975.108
975.435
975.764
976.094
976.425
976.756
977.088
977.418
977.747
978.074
978.398
978.718
979.035
979.346
979.653
979.953
980.247
980.533
980.812
981.081
981.342
981.593
981.834
982.064
982.283
982.491
982.687
982.871
983.043
983.203
983.351
983.486
983.608
983.718
983.815
983.9
983.972
984.032
984.08