# vtk DataFile Version 2.0
LBE mesh
ASCII
DATASET STRUCTURED_POINTS
DIMENSIONS 300 100 1
ASPECT_RATIO 1 1 1
ORIGIN 0 0 0
POINT_DATA 30000
SCALARS rho double 1
LOOKUP_TABLE default
1045.24
1013.32
1012.55
1019.05
1017.19
1013.23
1012.99
1013.48
1012.68
1011.85
1011.65
1011.46
1011.06
1010.72
1010.49
1010.24
1009.97
1009.71
1009.48
1009.24
1009
1008.76
1008.51
1008.27
1008.02
1007.77
1007.51
1007.24
1006.97
1006.69
1006.41
1006.11
1005.8
1005.49
1005.16
1004.82
1004.47
1004.1
1003.73
1003.33
1002.93
1002.5
1002.06
1001.61
1001.14
1000.65
1000.15
999.623
999.084
998.528
997.954
997.364
996.757
996.134
995.495
994.842
994.175
993.494
992.802
992.099
991.386
990.666
989.94
989.208
988.474
987.739
987.005
986.274
985.547
984.827
984.116
983.414
982.725
982.049
981.389
980.746
980.121
979.514
978.928
978.364
977.821
977.3
976.803
976.329
975.879
975.452
975.048
974.667
974.31
973.974
973.661
973.37
973.099
972.849
972.619
972.408
972.215
972.04
971.883
971.742
971.617
971.507
971.412
971.33
971.262
971.206
971.163
971.131
971.11
971.1
971.101
971.11
971.129
971.157
971.193
971.237
971.288
971.347
971.412
971.484
971.562
971.646
971.736
971.831
971.931
972.036
972.146
972.261
972.379
972.502
972.629
972.761
972.896
973.036
973.179
973.327
973.479
973.636
973.797
973.964
974.136
974.313
974.496
974.685
974.881
975.084
975.295
975.513
975.739
975.973
976.217
976.469
976.731
977.002
977.283
977.573
977.873
978.183
978.501
978.828
979.164
979.507
979.858
980.215
980.578
980.946
981.319
981.694
982.072
982.451
982.83
983.208
983.584
983.958
984.327
984.691
985.049
985.4
985.743
986.077
986.402
986.716
987.02
987.311
987.59
987.856
988.109
988.349
988.575
988.786
988.983
989.166
989.334
989.487
989.625
989.749
989.858
989.952
990.031
990.095
990.144
990.177
990.195
990.197
990.182
990.152
990.103
990.038
989.954
989.851
989.73
989.588
989.427
989.245
989.043
988.82
988.577
988.313
988.029
987.725
987.403
987.064
986.707
986.336
985.951
985.554
985.146
984.731
984.311
983.886
983.461
983.037
982.617
982.203
981.798
981.404
981.024
980.659
980.311
979.983
979.675
979.389
979.127
978.888
978.674
978.485
978.32
978.179
978.062
977.968
977.895
977.842
977.808
977.791
977.789
977.799
977.821
977.85
977.886
977.925
977.966
978.006
978.042
978.074
978.098
978.114
978.119
978.111
978.091
978.056
978.005
977.938
977.854
977.753
977.634
977.496
977.341
977.168
976.975
976.765
976.536
976.286
976.015
975.731
975.421
975.069
974.712
974.356
973.893
973.357
972.975
972.475
971.42
970.703
970.82
968.898
965.228
967.35
968.248
945.352
1028.03
1024.42
1020.28
1015.02
1015.18
1015.31
1014.1
1012.91
1012.64
1012.36
1011.85
1011.42
1011.16
1010.87
1010.56
1010.28
1010.03
1009.78
1009.52
1009.27
1009.03
1008.78
1008.54
1008.29
1008.03
1007.78
1007.51
1007.25
1006.97
1006.69
1006.4
1006.1
1005.79
1005.47
1005.14
1004.8
1004.45
1004.08
1003.7
1003.3
1002.89
1002.47
1002.03
1001.57
1001.1
1000.61
1000.11
999.582
999.041
998.484
997.91
997.318
996.711
996.088
995.449
994.796
994.129
993.449
992.758
992.056
991.345
990.626
989.901
989.172
988.44
987.708
986.976
986.248
985.524
984.807
984.099
983.401
982.715
982.043
981.386
980.746
980.124
979.522
978.939
978.378
977.838
977.321
976.827
976.356
975.908
975.483
975.082
974.703
974.348
974.014
973.703
973.413
973.144
972.895
972.666
972.456
972.264
972.09
971.934
971.793
971.669
971.56
971.465
971.383
971.315
971.26
971.217
971.185
971.165
971.155
971.155
971.165
971.184
971.211
971.247
971.291
971.342
971.401
971.466
971.538
971.615
971.699
971.789
971.883
971.983
972.087
972.196
972.31
972.428
972.55
972.677
972.807
972.942
973.08
973.223
973.37
973.521
973.677
973.837
974.002
974.173
974.349
974.531
974.719
974.913
975.115
975.324
975.541
975.765
975.998
976.24
976.491
976.751
977.02
977.299
977.588
977.886
978.193
978.509
978.834
979.168
979.509
979.858
980.214
980.575
980.941
981.312
981.686
982.062
982.439
982.817
983.193
983.569
983.941
984.309
984.672
985.029
985.38
985.722
986.056
986.38
986.694
986.997
987.288
987.568
987.834
988.087
988.327
988.553
988.765
988.962
989.145
989.313
989.467
989.605
989.73
989.839
989.933
990.012
990.076
990.125
990.159
990.177
990.18
990.166
990.136
990.089
990.024
989.942
989.841
989.721
989.582
989.422
989.243
989.043
988.823
988.582
988.321
988.04
987.74
987.42
987.083
986.73
986.361
985.978
985.583
985.178
984.765
984.345
983.922
983.497
983.074
982.653
982.239
981.833
981.438
981.056
980.69
980.34
980.009
979.699
979.41
979.145
978.904
978.686
978.493
978.325
978.181
978.06
977.962
977.886
977.83
977.793
977.773
977.768
977.776
977.795
977.822
977.856
977.894
977.933
977.972
978.007
978.038
978.062
978.077
978.082
978.075
978.054
978.019
977.969
977.902
977.818
977.717
977.598
977.46
977.304
977.13
976.937
976.724
976.492
976.242
975.97
975.673
975.359
975.025
974.646
974.234
973.831
973.355
972.74
972.175
971.683
970.679
969.405
968.937
967.873
963.898
960.318
958.546
1019.87
1024.68
1019.95
1015.6
1015.82
1015.51
1014.09
1013.11
1012.89
1012.51
1011.95
1011.54
1011.27
1010.96
1010.64
1010.36
1010.1
1009.84
1009.57
1009.32
1009.07
1008.82
1008.57
1008.32
1008.06
1007.8
1007.53
1007.26
1006.99
1006.7
1006.41
1006.11
1005.8
1005.47
1005.14
1004.8
1004.44
1004.07
1003.69
1003.29
1002.88
1002.46
1002.01
1001.56
1001.08
1000.59
1000.08
999.557
999.015
998.456
997.88
997.288
996.679
996.054
995.414
994.76
994.092
993.411
992.719
992.016
991.305
990.586
989.861
989.132
988.4
987.668
986.937
986.209
985.487
984.771
984.064
983.368
982.683
982.014
981.359
980.721
980.102
979.502
978.922
978.363
977.827
977.313
976.821
976.353
975.908
975.486
975.087
974.711
974.358
974.027
973.718
973.431
973.164
972.917
972.69
972.482
972.292
972.119
971.964
971.825
971.701
971.593
971.499
971.419
971.352
971.297
971.255
971.224
971.204
971.195
971.195
971.206
971.225
971.253
971.289
971.333
971.384
971.443
971.508
971.58
971.658
971.742
971.831
971.925
972.024
972.129
972.237
972.351
972.468
972.59
972.716
972.845
972.979
973.117
973.259
973.405
973.555
973.709
973.868
974.033
974.202
974.376
974.557
974.743
974.936
975.136
975.344
975.558
975.781
976.012
976.253
976.501
976.76
977.027
977.304
977.591
977.887
978.193
978.507
978.831
979.163
979.503
979.851
980.205
980.565
980.93
981.3
981.673
982.048
982.425
982.802
983.179
983.553
983.925
984.294
984.657
985.014
985.365
985.707
986.041
986.366
986.681
986.984
987.276
987.555
987.822
988.076
988.317
988.543
988.755
988.953
989.136
989.305
989.459
989.597
989.722
989.831
989.926
990.005
990.07
990.119
990.154
990.173
990.176
990.164
990.134
990.089
990.026
989.945
989.846
989.728
989.591
989.434
989.258
989.06
988.843
988.605
988.346
988.067
987.769
987.452
987.116
986.765
986.397
986.015
985.62
985.215
984.801
984.38
983.956
983.529
983.104
982.681
982.264
981.855
981.457
981.072
980.702
980.349
980.014
979.7
979.408
979.139
978.894
978.673
978.477
978.305
978.159
978.035
977.935
977.857
977.799
977.761
977.74
977.734
977.741
977.76
977.788
977.821
977.86
977.9
977.939
977.976
978.008
978.033
978.05
978.056
978.05
978.031
977.997
977.948
977.882
977.799
977.698
977.579
977.442
977.286
977.111
976.917
976.704
976.469
976.218
975.947
975.647
975.323
974.995
974.627
974.184
973.762
973.369
972.739
971.989
971.666
971.045
969.161
968.398
969.324
965.246
959.977
964.201
1019.59
1018.29
1017.73
1018.89
1016.35
1014.21
1014.14
1014.03
1013.1
1012.36
1012.1
1011.82
1011.38
1011.02
1010.75
1010.47
1010.18
1009.91
1009.65
1009.39
1009.13
1008.88
1008.62
1008.37
1008.11
1007.84
1007.57
1007.3
1007.02
1006.73
1006.44
1006.13
1005.82
1005.5
1005.16
1004.82
1004.46
1004.09
1003.7
1003.3
1002.89
1002.46
1002.02
1001.56
1001.08
1000.59
1000.08
999.55
999.006
998.444
997.865
997.27
996.658
996.031
995.388
994.731
994.059
993.376
992.68
991.975
991.26
990.538
989.811
989.079
988.345
987.611
986.878
986.149
985.425
984.708
984
983.304
982.62
981.95
981.297
980.66
980.042
979.444
978.866
978.311
977.777
977.265
976.777
976.312
975.87
975.452
975.056
974.684
974.334
974.007
973.701
973.416
973.153
972.908
972.684
972.478
972.291
972.121
971.967
971.83
971.709
971.602
971.51
971.431
971.365
971.312
971.271
971.241
971.222
971.214
971.215
971.226
971.246
971.275
971.312
971.356
971.409
971.468
971.534
971.606
971.685
971.769
971.858
971.953
972.052
972.157
972.265
972.379
972.496
972.617
972.742
972.872
973.005
973.142
973.283
973.428
973.578
973.731
973.889
974.052
974.22
974.394
974.573
974.757
974.949
975.147
975.352
975.565
975.786
976.016
976.254
976.501
976.758
977.024
977.299
977.585
977.879
978.184
978.497
978.819
979.15
979.49
979.837
980.19
980.55
980.915
981.285
981.658
982.034
982.411
982.788
983.165
983.541
983.913
984.282
984.646
985.005
985.356
985.699
986.034
986.36
986.675
986.98
987.272
987.553
987.821
988.075
988.317
988.543
988.756
988.955
989.138
989.307
989.462
989.601
989.726
989.835
989.93
990.01
990.075
990.126
990.161
990.181
990.185
990.174
990.147
990.102
990.041
989.963
989.866
989.751
989.616
989.462
989.288
989.093
988.878
988.642
988.386
988.109
987.812
987.495
987.161
986.809
986.44
986.057
985.661
985.254
984.837
984.414
983.985
983.555
983.125
982.698
982.276
981.863
981.459
981.069
980.694
980.336
979.996
979.678
979.382
979.108
978.86
978.636
978.436
978.263
978.114
977.989
977.888
977.809
977.751
977.713
977.692
977.687
977.696
977.716
977.746
977.782
977.823
977.865
977.908
977.947
977.983
978.011
978.03
978.039
978.036
978.019
977.988
977.94
977.876
977.795
977.695
977.577
977.44
977.285
977.109
976.915
976.702
976.47
976.214
975.939
975.65
975.329
974.972
974.619
974.241
973.755
973.263
972.878
972.261
971.333
970.885
970.52
968.72
967.206
967.467
966.825
965.325
1019.58
1017.37
1017.27
1017.14
1015.63
1015.19
1014.6
1013.72
1013.08
1012.76
1012.35
1011.87
1011.5
1011.2
1010.89
1010.58
1010.29
1010.02
1009.75
1009.48
1009.22
1008.96
1008.7
1008.44
1008.18
1007.91
1007.64
1007.36
1007.08
1006.79
1006.49
1006.19
1005.87
1005.54
1005.21
1004.86
1004.5
1004.13
1003.74
1003.34
1002.92
1002.49
1002.04
1001.58
1001.1
1000.6
1000.09
999.56
999.012
998.447
997.864
997.264
996.647
996.015
995.367
994.704
994.028
993.338
992.637
991.926
991.206
990.478
989.745
989.008
988.269
987.53
986.793
986.059
985.331
984.611
983.901
983.202
982.516
981.846
981.192
980.555
979.938
979.341
978.766
978.211
977.68
977.172
976.687
976.226
975.788
975.373
974.982
974.614
974.269
973.945
973.644
973.363
973.104
972.863
972.643
972.441
972.256
972.089
971.939
971.804
971.685
971.581
971.491
971.414
971.35
971.299
971.259
971.231
971.213
971.206
971.209
971.221
971.242
971.272
971.31
971.356
971.409
971.469
971.536
971.61
971.689
971.774
971.864
971.96
972.06
972.165
972.274
972.388
972.506
972.628
972.753
972.883
973.016
973.153
973.294
973.438
973.587
973.74
973.898
974.06
974.227
974.399
974.576
974.76
974.95
975.147
975.351
975.562
975.782
976.01
976.246
976.492
976.747
977.012
977.286
977.571
977.865
978.168
978.481
978.803
979.134
979.473
979.82
980.174
980.534
980.899
981.27
981.644
982.02
982.398
982.777
983.155
983.532
983.906
984.276
984.641
985.001
985.354
985.699
986.035
986.362
986.679
986.984
987.278
987.56
987.829
988.085
988.327
988.555
988.768
988.967
989.151
989.321
989.476
989.616
989.741
989.851
989.946
990.027
990.093
990.143
990.18
990.2
990.206
990.196
990.171
990.129
990.07
989.993
989.899
989.787
989.655
989.503
989.332
989.14
988.927
988.692
988.437
988.161
987.864
987.548
987.213
986.859
986.489
986.103
985.703
985.292
984.871
984.442
984.009
983.572
983.136
982.702
982.274
981.854
981.444
981.047
980.666
980.302
979.957
979.633
979.333
979.055
978.803
978.576
978.374
978.198
978.048
977.923
977.821
977.743
977.686
977.649
977.631
977.629
977.641
977.664
977.698
977.738
977.783
977.83
977.877
977.921
977.961
977.993
978.017
978.03
978.031
978.017
977.989
977.945
977.883
977.803
977.706
977.589
977.453
977.299
977.125
976.931
976.717
976.487
976.235
975.958
975.667
975.361
975.011
974.631
974.278
973.87
973.317
972.858
972.52
971.711
970.78
970.753
970.079
968.046
967.979
968.349
966.986
1017.48
1017.49
1017.05
1015.54
1015.65
1015.48
1014.27
1013.62
1013.43
1012.98
1012.38
1011.99
1011.72
1011.37
1011.01
1010.71
1010.44
1010.16
1009.87
1009.61
1009.34
1009.08
1008.81
1008.55
1008.28
1008.01
1007.73
1007.46
1007.17
1006.88
1006.58
1006.27
1005.95
1005.62
1005.28
1004.93
1004.57
1004.19
1003.8
1003.4
1002.98
1002.54
1002.09
1001.63
1001.14
1000.64
1000.12
999.589
999.035
998.464
997.875
997.269
996.646
996.006
995.351
994.68
993.995
993.298
992.589
991.869
991.14
990.404
989.662
988.917
988.17
987.423
986.678
985.938
985.204
984.478
983.762
983.059
982.37
981.696
981.04
980.403
979.785
979.189
978.614
978.062
977.533
977.028
976.547
976.09
975.657
975.247
974.861
974.498
974.158
973.84
973.543
973.268
973.013
972.778
972.562
972.364
972.184
972.021
971.874
971.743
971.627
971.525
971.438
971.363
971.302
971.252
971.215
971.188
971.172
971.166
971.171
971.184
971.207
971.238
971.277
971.325
971.379
971.441
971.509
971.584
971.665
971.752
971.843
971.94
972.042
972.149
972.259
972.375
972.494
972.617
972.743
972.874
973.008
973.146
973.287
973.432
973.581
973.734
973.892
974.054
974.22
974.392
974.569
974.752
974.941
975.137
975.34
975.551
975.769
975.997
976.232
976.477
976.732
976.996
977.27
977.554
977.847
978.151
978.464
978.786
979.117
979.457
979.804
980.159
980.52
980.887
981.258
981.633
982.011
982.391
982.771
983.151
983.529
983.905
984.277
984.644
985.005
985.36
985.706
986.044
986.373
986.691
986.998
987.293
987.576
987.846
988.104
988.347
988.575
988.79
988.99
989.175
989.345
989.5
989.641
989.766
989.877
989.973
990.054
990.12
990.172
990.209
990.231
990.238
990.23
990.206
990.166
990.109
990.035
989.943
989.834
989.704
989.555
989.386
989.196
988.984
988.752
988.497
988.221
987.924
987.607
987.269
986.913
986.539
986.149
985.745
985.327
984.9
984.464
984.023
983.579
983.135
982.693
982.257
981.829
981.411
981.007
980.618
980.248
979.897
979.568
979.262
978.981
978.725
978.495
978.291
978.114
977.964
977.838
977.738
977.661
977.606
977.573
977.558
977.559
977.576
977.604
977.643
977.689
977.74
977.792
977.845
977.895
977.941
977.979
978.009
978.027
978.032
978.024
978
977.959
977.901
977.824
977.729
977.615
977.481
977.328
977.156
976.965
976.753
976.521
976.274
976.007
975.709
975.4
975.088
974.72
974.308
973.957
973.564
972.958
972.469
972.228
971.468
970.473
970.386
970.15
969.087
968.602
969.068
1016.43
1016.81
1016.31
1015.64
1015.43
1014.66
1014.27
1014
1013.41
1012.86
1012.55
1012.25
1011.84
1011.47
1011.18
1010.9
1010.59
1010.3
1010.03
1009.76
1009.48
1009.22
1008.95
1008.68
1008.41
1008.14
1007.86
1007.58
1007.29
1006.99
1006.69
1006.38
1006.06
1005.73
1005.39
1005.03
1004.67
1004.29
1003.89
1003.49
1003.06
1002.62
1002.17
1001.7
1001.21
1000.7
1000.18
999.636
999.075
998.496
997.9
997.285
996.653
996.004
995.339
994.658
993.963
993.254
992.534
991.802
991.062
990.314
989.561
988.805
988.046
987.288
986.533
985.783
985.04
984.306
983.584
982.874
982.179
981.502
980.842
980.203
979.583
978.987
978.413
977.863
977.336
976.834
976.357
975.905
975.476
975.072
974.691
974.335
974
973.689
973.398
973.129
972.88
972.65
972.44
972.247
972.072
971.913
971.77
971.643
971.531
971.432
971.348
971.276
971.217
971.169
971.134
971.109
971.095
971.091
971.096
971.111
971.135
971.168
971.209
971.258
971.314
971.377
971.448
971.524
971.607
971.696
971.79
971.889
971.993
972.102
972.215
972.333
972.454
972.58
972.709
972.841
972.977
973.117
973.26
973.407
973.557
973.712
973.87
974.033
974.201
974.373
974.551
974.734
974.924
975.12
975.323
975.534
975.753
975.98
976.216
976.461
976.715
976.98
977.254
977.538
977.832
978.136
978.45
978.773
979.105
979.446
979.795
980.151
980.513
980.881
981.254
981.631
982.01
982.392
982.774
983.155
983.535
983.913
984.286
984.655
985.018
985.374
985.722
986.062
986.392
986.712
987.02
987.317
987.601
987.872
988.131
988.375
988.605
988.82
989.021
989.207
989.378
989.534
989.675
989.801
989.912
990.009
990.091
990.158
990.21
990.248
990.271
990.28
990.273
990.251
990.212
990.158
990.086
989.997
989.889
989.763
989.616
989.449
989.26
989.05
988.817
988.563
988.287
987.988
987.668
987.328
986.968
986.589
986.193
985.782
985.357
984.922
984.478
984.028
983.575
983.121
982.67
982.225
981.788
981.362
980.949
980.553
980.175
979.819
979.484
979.173
978.888
978.628
978.396
978.191
978.013
977.863
977.738
977.639
977.565
977.514
977.484
977.473
977.48
977.502
977.537
977.582
977.635
977.692
977.752
977.812
977.87
977.922
977.968
978.004
978.028
978.04
978.037
978.018
977.982
977.929
977.856
977.765
977.654
977.523
977.373
977.202
977.014
976.807
976.579
976.331
976.072
975.79
975.475
975.16
974.843
974.452
974.035
973.714
973.301
972.672
972.303
972.077
971.273
970.666
970.704
970.235
969.853
970.275
1016.17
1015.84
1015.59
1015.7
1015.04
1014.43
1014.32
1013.86
1013.33
1013.01
1012.71
1012.29
1011.93
1011.65
1011.35
1011.03
1010.74
1010.47
1010.19
1009.91
1009.64
1009.38
1009.11
1008.84
1008.56
1008.29
1008.01
1007.72
1007.43
1007.14
1006.83
1006.52
1006.19
1005.86
1005.52
1005.16
1004.79
1004.41
1004.01
1003.6
1003.17
1002.73
1002.27
1001.79
1001.3
1000.78
1000.25
999.701
999.132
998.544
997.938
997.313
996.67
996.009
995.331
994.638
993.93
993.207
992.472
991.727
990.972
990.21
989.442
988.671
987.899
987.127
986.359
985.597
984.842
984.098
983.366
982.648
981.946
981.263
980.598
979.955
979.334
978.736
978.163
977.614
977.09
976.592
976.118
975.671
975.248
974.85
974.476
974.126
973.799
973.494
973.211
972.948
972.706
972.482
972.278
972.091
971.922
971.768
971.63
971.507
971.398
971.303
971.221
971.152
971.095
971.05
971.016
970.993
970.98
970.977
970.984
971
971.026
971.06
971.102
971.152
971.21
971.276
971.348
971.427
971.512
971.603
971.7
971.802
971.909
972.022
972.138
972.259
972.384
972.513
972.646
972.782
972.921
973.064
973.211
973.361
973.515
973.672
973.833
973.999
974.168
974.343
974.523
974.709
974.9
975.098
975.303
975.515
975.735
975.964
976.201
976.447
976.703
976.969
977.244
977.53
977.825
978.131
978.446
978.771
979.104
979.446
979.797
980.154
980.518
980.888
981.262
981.641
982.022
982.405
982.788
983.171
983.553
983.932
984.307
984.677
985.041
985.399
985.748
986.089
986.42
986.741
987.051
987.349
987.634
987.907
988.166
988.411
988.642
988.858
989.06
989.246
989.419
989.575
989.717
989.844
989.955
990.053
990.135
990.203
990.256
990.295
990.319
990.329
990.323
990.302
990.266
990.213
990.144
990.056
989.951
989.826
989.681
989.515
989.328
989.118
988.886
988.631
988.354
988.053
987.73
987.385
987.02
986.635
986.232
985.813
985.38
984.936
984.482
984.022
983.559
983.095
982.634
982.179
981.732
981.297
980.876
980.472
980.088
979.724
979.384
979.068
978.779
978.517
978.282
978.075
977.897
977.747
977.624
977.528
977.456
977.409
977.384
977.378
977.391
977.42
977.462
977.514
977.575
977.641
977.709
977.778
977.844
977.905
977.958
978.002
978.034
978.053
978.057
978.044
978.014
977.965
977.898
977.811
977.704
977.577
977.432
977.266
977.08
976.877
976.657
976.415
976.153
975.886
975.597
975.267
974.948
974.642
974.241
973.814
973.535
973.153
972.533
972.207
972.063
971.502
971.029
971.074
971.125
971.056
1015.71
1015.48
1015.34
1015.12
1014.72
1014.55
1014.12
1013.66
1013.42
1013.11
1012.69
1012.36
1012.09
1011.78
1011.46
1011.17
1010.91
1010.63
1010.35
1010.08
1009.81
1009.55
1009.28
1009.01
1008.73
1008.46
1008.18
1007.89
1007.6
1007.3
1006.99
1006.68
1006.35
1006.02
1005.67
1005.31
1004.94
1004.55
1004.15
1003.74
1003.3
1002.86
1002.39
1001.91
1001.4
1000.88
1000.34
999.784
999.205
998.607
997.989
997.352
996.696
996.021
995.329
994.621
993.896
993.158
992.406
991.643
990.871
990.091
989.306
988.518
987.729
986.941
986.157
985.38
984.611
983.854
983.11
982.382
981.671
980.98
980.31
979.663
979.039
978.44
977.866
977.319
976.798
976.303
975.834
975.392
974.976
974.584
974.218
973.875
973.556
973.259
972.983
972.728
972.493
972.277
972.08
971.899
971.735
971.587
971.454
971.336
971.23
971.139
971.06
970.994
970.939
970.895
970.863
970.841
970.829
970.827
970.834
970.851
970.878
970.912
970.956
971.007
971.067
971.134
971.208
971.289
971.377
971.471
971.571
971.677
971.787
971.904
972.025
972.15
972.28
972.414
972.552
972.693
972.838
972.986
973.138
973.293
973.452
973.614
973.78
973.95
974.125
974.304
974.488
974.678
974.873
975.074
975.282
975.498
975.721
975.952
976.193
976.442
976.7
976.968
977.246
977.534
977.832
978.139
978.456
978.783
979.118
979.463
979.815
980.174
980.54
980.911
981.287
981.666
982.049
982.433
982.817
983.201
983.584
983.963
984.339
984.71
985.075
985.433
985.784
986.125
986.457
986.779
987.089
987.388
987.673
987.947
988.206
988.452
988.684
988.901
989.104
989.291
989.463
989.621
989.763
989.891
990.003
990.101
990.184
990.253
990.307
990.347
990.372
990.382
990.378
990.358
990.323
990.272
990.204
990.118
990.014
989.891
989.747
989.582
989.396
989.186
988.954
988.698
988.418
988.115
987.788
987.438
987.067
986.675
986.265
985.837
985.395
984.94
984.476
984.006
983.532
983.058
982.586
982.121
981.664
981.22
980.79
980.378
979.986
979.616
979.27
978.95
978.657
978.391
978.154
977.947
977.769
977.62
977.498
977.405
977.337
977.294
977.274
977.275
977.294
977.33
977.38
977.441
977.51
977.585
977.663
977.741
977.816
977.886
977.949
978.002
978.043
978.07
978.081
978.076
978.053
978.011
977.949
977.868
977.766
977.645
977.503
977.344
977.164
976.964
976.75
976.52
976.266
975.997
975.728
975.432
975.096
974.788
974.492
974.086
973.695
973.453
973.072
972.571
972.353
972.157
971.801
971.694
971.737
971.87
1015.19
1015.2
1015.08
1014.72
1014.58
1014.38
1013.94
1013.69
1013.42
1013.05
1012.74
1012.48
1012.17
1011.86
1011.59
1011.33
1011.05
1010.77
1010.51
1010.25
1009.98
1009.71
1009.45
1009.18
1008.91
1008.64
1008.36
1008.07
1007.78
1007.48
1007.17
1006.86
1006.53
1006.19
1005.84
1005.48
1005.11
1004.72
1004.31
1003.89
1003.46
1003
1002.53
1002.04
1001.53
1001
1000.45
999.883
999.294
998.683
998.052
997.402
996.731
996.041
995.332
994.606
993.864
993.106
992.336
991.553
990.76
989.96
989.155
988.346
987.537
986.73
985.927
985.133
984.348
983.576
982.818
982.078
981.357
980.657
979.98
979.328
978.7
978.1
977.526
976.98
976.462
975.971
975.508
975.072
974.662
974.278
973.92
973.586
973.275
972.987
972.72
972.474
972.247
972.039
971.849
971.675
971.518
971.375
971.247
971.133
971.032
970.944
970.868
970.804
970.751
970.708
970.677
970.656
970.644
970.642
970.65
970.667
970.693
970.728
970.772
970.824
970.884
970.952
971.028
971.111
971.201
971.298
971.402
971.511
971.627
971.747
971.874
972.005
972.141
972.281
972.425
972.574
972.726
972.881
973.04
973.203
973.369
973.538
973.711
973.888
974.07
974.255
974.446
974.642
974.843
975.051
975.264
975.485
975.713
975.95
976.194
976.448
976.71
976.982
977.264
977.555
977.856
978.167
978.486
978.815
979.153
979.499
979.853
980.214
980.582
980.954
981.331
981.711
982.094
982.479
982.864
983.248
983.631
984.011
984.386
984.757
985.122
985.48
985.83
986.171
986.503
986.825
987.135
987.433
987.719
987.992
988.252
988.498
988.729
988.947
989.15
989.337
989.51
989.668
989.811
989.939
990.052
990.151
990.235
990.304
990.359
990.4
990.425
990.437
990.433
990.415
990.38
990.33
990.263
990.179
990.075
989.953
989.81
989.646
989.459
989.25
989.016
988.759
988.477
988.17
987.838
987.483
987.106
986.707
986.288
985.852
985.4
984.935
984.46
983.979
983.495
983.009
982.527
982.051
981.585
981.131
980.693
980.273
979.874
979.497
979.146
978.821
978.523
978.255
978.017
977.808
977.63
977.482
977.362
977.272
977.208
977.169
977.155
977.162
977.189
977.233
977.291
977.361
977.44
977.525
977.613
977.701
977.787
977.867
977.94
978.003
978.053
978.089
978.11
978.113
978.098
978.063
978.009
977.934
977.839
977.724
977.589
977.434
977.263
977.072
976.861
976.638
976.403
976.142
975.867
975.603
975.309
974.97
974.68
974.404
974.01
973.653
973.45
973.129
972.729
972.564
972.481
972.302
972.266
972.53
1014.9
1014.88
1014.75
1014.59
1014.42
1014.1
1013.9
1013.68
1013.33
1013.05
1012.82
1012.53
1012.23
1011.97
1011.72
1011.44
1011.17
1010.92
1010.67
1010.4
1010.14
1009.89
1009.63
1009.36
1009.1
1008.82
1008.55
1008.26
1007.97
1007.67
1007.37
1007.05
1006.72
1006.38
1006.03
1005.67
1005.29
1004.9
1004.49
1004.07
1003.63
1003.17
1002.69
1002.19
1001.67
1001.14
1000.58
999.997
999.396
998.772
998.127
997.461
996.774
996.067
995.34
994.595
993.832
993.053
992.26
991.455
990.64
989.816
988.987
988.156
987.324
986.495
985.671
984.857
984.053
983.264
982.491
981.737
981.004
980.294
979.609
978.951
978.32
977.717
977.144
976.599
976.084
975.598
975.141
974.712
974.31
973.935
973.586
973.261
972.96
972.682
972.425
972.188
971.971
971.771
971.589
971.423
971.272
971.136
971.014
970.904
970.807
970.722
970.649
970.586
970.535
970.493
970.462
970.441
970.429
970.427
970.434
970.45
970.475
970.51
970.553
970.604
970.665
970.734
970.81
970.895
970.987
971.087
971.193
971.307
971.427
971.553
971.685
971.823
971.966
972.113
972.266
972.422
972.583
972.748
972.916
973.088
973.264
973.443
973.626
973.813
974.004
974.199
974.399
974.603
974.814
975.029
975.251
975.479
975.715
975.958
976.209
976.469
976.737
977.015
977.301
977.597
977.902
978.216
978.54
978.872
979.212
979.561
979.916
980.279
980.647
981.02
981.398
981.779
982.162
982.546
982.93
983.314
983.696
984.075
984.449
984.819
985.182
985.539
985.887
986.227
986.557
986.877
987.186
987.484
987.768
988.04
988.299
988.544
988.775
988.992
989.194
989.382
989.554
989.712
989.856
989.984
990.098
990.197
990.281
990.351
990.407
990.448
990.475
990.487
990.484
990.466
990.432
990.383
990.316
990.232
990.13
990.008
989.865
989.701
989.514
989.304
989.069
988.81
988.525
988.214
987.878
987.518
987.134
986.728
986.301
985.855
985.394
984.919
984.434
983.942
983.447
982.951
982.458
981.972
981.496
981.033
980.586
980.159
979.752
979.369
979.012
978.683
978.382
978.111
977.87
977.661
977.483
977.335
977.218
977.13
977.07
977.037
977.029
977.042
977.077
977.129
977.197
977.276
977.366
977.461
977.56
977.659
977.756
977.848
977.932
978.005
978.066
978.112
978.143
978.155
978.149
978.122
978.076
978.009
977.922
977.814
977.687
977.54
977.375
977.193
976.994
976.776
976.549
976.312
976.047
975.775
975.52
975.229
974.902
974.635
974.371
974.012
973.717
973.519
973.249
972.998
972.883
972.81
972.814
972.979
1014.69
1014.6
1014.5
1014.43
1014.23
1014
1013.84
1013.57
1013.31
1013.1
1012.83
1012.55
1012.32
1012.07
1011.81
1011.55
1011.31
1011.06
1010.81
1010.56
1010.31
1010.06
1009.8
1009.54
1009.28
1009.01
1008.74
1008.46
1008.17
1007.87
1007.57
1007.25
1006.92
1006.58
1006.23
1005.87
1005.49
1005.1
1004.68
1004.26
1003.81
1003.35
1002.86
1002.36
1001.83
1001.29
1000.72
1000.12
999.51
998.874
998.214
997.531
996.826
996.1
995.353
994.586
993.801
992.998
992.181
991.351
990.509
989.66
988.805
987.948
987.09
986.236
985.389
984.552
983.727
982.918
982.128
981.358
980.612
979.891
979.197
978.533
977.898
977.293
976.72
976.178
975.666
975.186
974.736
974.315
973.922
973.557
973.218
972.905
972.615
972.347
972.101
971.875
971.667
971.477
971.304
971.147
971.003
970.874
970.757
970.652
970.56
970.478
970.407
970.346
970.295
970.254
970.223
970.201
970.188
970.184
970.19
970.204
970.228
970.26
970.302
970.353
970.412
970.481
970.558
970.643
970.737
970.838
970.948
971.065
971.19
971.322
971.46
971.604
971.755
971.911
972.073
972.24
972.411
972.586
972.766
972.95
973.138
973.329
973.525
973.724
973.927
974.134
974.346
974.562
974.784
975.01
975.243
975.482
975.727
975.979
976.24
976.507
976.784
977.068
977.361
977.662
977.973
978.292
978.62
978.955
979.299
979.649
980.007
980.37
980.74
981.113
981.491
981.871
982.254
982.636
983.019
983.401
983.781
984.157
984.529
984.896
985.257
985.61
985.956
986.293
986.62
986.938
987.244
987.539
987.821
988.091
988.347
988.59
988.82
989.035
989.236
989.422
989.594
989.751
989.894
990.022
990.135
990.234
990.319
990.389
990.445
990.487
990.514
990.526
990.524
990.507
990.474
990.425
990.359
990.275
990.172
990.05
989.908
989.743
989.556
989.344
989.108
988.846
988.558
988.244
987.904
987.538
987.148
986.735
986.3
985.846
985.376
984.892
984.397
983.895
983.389
982.883
982.381
981.885
981.4
980.928
980.473
980.038
979.624
979.235
978.873
978.538
978.234
977.96
977.718
977.507
977.329
977.182
977.067
976.982
976.926
976.898
976.896
976.917
976.959
977.021
977.098
977.187
977.287
977.394
977.504
977.615
977.724
977.827
977.923
978.008
978.08
978.138
978.179
978.202
978.205
978.188
978.151
978.093
978.015
977.915
977.796
977.659
977.502
977.328
977.141
976.936
976.713
976.487
976.252
975.986
975.722
975.479
975.196
974.886
974.643
974.397
974.08
973.829
973.66
973.45
973.268
973.209
973.214
973.301
1014.47
1014.43
1014.36
1014.23
1014.08
1013.95
1013.73
1013.5
1013.33
1013.09
1012.84
1012.62
1012.39
1012.14
1011.9
1011.67
1011.43
1011.19
1010.95
1010.71
1010.47
1010.22
1009.97
1009.72
1009.46
1009.2
1008.93
1008.65
1008.37
1008.07
1007.77
1007.46
1007.13
1006.79
1006.44
1006.08
1005.7
1005.3
1004.89
1004.46
1004.01
1003.54
1003.05
1002.54
1002
1001.45
1000.87
1000.26
999.638
998.986
998.31
997.61
996.886
996.139
995.37
994.58
993.77
992.942
992.098
991.239
990.37
989.492
988.608
987.721
986.835
985.954
985.08
984.217
983.368
982.538
981.727
980.941
980.18
979.447
978.744
978.072
977.434
976.827
976.254
975.715
975.209
974.735
974.293
973.882
973.5
973.146
972.819
972.518
972.24
971.985
971.751
971.537
971.34
971.161
970.998
970.849
970.714
970.591
970.48
970.381
970.293
970.214
970.145
970.086
970.036
969.995
969.963
969.939
969.925
969.919
969.922
969.934
969.955
969.985
970.024
970.073
970.13
970.197
970.273
970.359
970.453
970.556
970.668
970.789
970.918
971.055
971.2
971.351
971.51
971.676
971.848
972.026
972.209
972.397
972.59
972.788
972.99
973.196
973.406
973.62
973.838
974.061
974.287
974.518
974.754
974.995
975.24
975.492
975.75
976.015
976.286
976.564
976.85
977.143
977.444
977.753
978.07
978.394
978.727
979.067
979.414
979.767
980.126
980.491
980.861
981.235
981.612
981.991
982.371
982.752
983.132
983.51
983.887
984.259
984.627
984.99
985.346
985.696
986.037
986.369
986.692
987.005
987.307