# vtk DataFile Version 2.0
LBE mesh
ASCII
DATASET STRUCTURED_POINTS
DIMENSIONS 300 100 1
ASPECT_RATIO 1 1 1
ORIGIN 0 0 0
POINT_DATA 30000
SCALARS rho double 1
LOOKUP_TABLE default
1045.09
1013.16
1012.4
1018.91
1017.05
1013.09
1012.87
1013.36
1012.56
1011.74
1011.55
1011.36
1010.97
1010.63
1010.41
1010.17
1009.91
1009.66
1009.44
1009.2
1008.97
1008.73
1008.5
1008.26
1008.02
1007.78
1007.53
1007.28
1007.02
1006.75
1006.47
1006.18
1005.89
1005.58
1005.27
1004.94
1004.6
1004.25
1003.88
1003.5
1003.11
1002.7
1002.28
1001.84
1001.38
1000.91
1000.42
999.911
999.388
998.848
998.291
997.717
997.127
996.521
995.9
995.264
994.614
993.951
993.277
992.591
991.897
991.194
990.486
989.772
989.056
988.338
987.621
986.906
986.196
985.492
984.796
984.109
983.434
982.773
982.126
981.495
980.882
980.287
979.711
979.156
978.622
978.11
977.62
977.153
976.707
976.285
975.885
975.507
975.151
974.817
974.504
974.212
973.941
973.688
973.455
973.24
973.042
972.862
972.698
972.549
972.416
972.297
972.192
972.1
972.021
971.953
971.897
971.852
971.818
971.793
971.778
971.772
971.774
971.785
971.804
971.83
971.862
971.902
971.948
971.999
972.057
972.119
972.188
972.26
972.338
972.42
972.506
972.597
972.691
972.789
972.89
972.995
973.104
973.216
973.332
973.451
973.574
973.701
973.831
973.966
974.105
974.249
974.398
974.552
974.712
974.878
975.051
975.23
975.418
975.613
975.816
976.028
976.25
976.481
976.721
976.971
977.232
977.502
977.782
978.072
978.372
978.681
978.999
979.325
979.659
980
980.348
980.701
981.059
981.421
981.785
982.151
982.517
982.883
983.246
983.608
983.966
984.319
984.666
985.007
985.34
985.664
985.979
986.284
986.578
986.861
987.132
987.39
987.635
987.866
988.084
988.288
988.478
988.653
988.814
988.961
989.093
989.21
989.313
989.401
989.475
989.533
989.577
989.605
989.618
989.616
989.597
989.563
989.511
989.443
989.356
989.252
989.128
988.986
988.823
988.641
988.439
988.216
987.973
987.709
987.426
987.124
986.802
986.463
986.107
985.735
985.349
984.951
984.542
984.124
983.7
983.271
982.841
982.411
981.983
981.561
981.147
980.742
980.351
979.974
979.613
979.271
978.949
978.649
978.372
978.118
977.888
977.684
977.504
977.348
977.217
977.109
977.024
976.96
976.915
976.889
976.878
976.881
976.897
976.921
976.953
976.989
977.028
977.067
977.104
977.136
977.162
977.179
977.186
977.18
977.161
977.127
977.077
977.01
976.925
976.821
976.699
976.557
976.394
976.213
976.011
975.784
975.536
975.272
974.981
974.646
974.304
973.96
973.509
972.985
972.612
972.122
971.079
970.372
970.498
968.589
964.938
967.074
967.979
945.109
1027.88
1024.27
1020.13
1014.88
1015.04
1015.18
1013.98
1012.79
1012.53
1012.25
1011.75
1011.33
1011.07
1010.79
1010.49
1010.21
1009.97
1009.73
1009.48
1009.24
1009
1008.76
1008.52
1008.28
1008.04
1007.79
1007.54
1007.28
1007.02
1006.74
1006.46
1006.17
1005.88
1005.57
1005.25
1004.92
1004.58
1004.22
1003.86
1003.47
1003.08
1002.67
1002.24
1001.8
1001.34
1000.87
1000.38
999.869
999.345
998.804
998.246
997.672
997.081
996.475
995.854
995.218
994.568
993.906
993.232
992.548
991.855
991.154
990.447
989.736
989.021
988.306
987.592
986.88
986.172
985.472
984.779
984.095
983.424
982.766
982.122
981.495
980.885
980.293
979.721
979.169
978.639
978.13
977.642
977.177
976.735
976.315
975.917
975.542
975.188
974.856
974.545
974.254
973.983
973.732
973.5
973.286
973.089
972.91
972.747
972.599
972.466
972.348
972.243
972.151
972.072
972.005
971.949
971.904
971.87
971.846
971.831
971.825
971.827
971.838
971.856
971.882
971.915
971.954
971.999
972.051
972.108
972.171
972.239
972.311
972.389
972.47
972.556
972.645
972.739
972.836
972.937
973.042
973.15
973.261
973.376
973.495
973.616
973.742
973.872
974.005
974.143
974.286
974.434
974.587
974.746
974.911
975.082
975.261
975.447
975.64
975.842
976.053
976.273
976.502
976.74
976.989
977.247
977.516
977.794
978.082
978.38
978.687
979.002
979.327
979.659
979.998
980.344
980.696
981.052
981.411
981.774
982.138
982.503
982.867
983.23
983.591
983.947
984.299
984.646
984.986
985.318
985.643
985.957
986.262
986.556
986.838
987.109
987.367
987.612
987.844
988.062
988.267
988.457
988.632
988.794
988.94
989.073
989.19
989.293
989.382
989.455
989.514
989.558
989.587
989.601
989.599
989.581
989.547
989.497
989.429
989.344
989.241
989.119
988.979
988.818
988.638
988.438
988.218
987.978
987.717
987.437
987.137
986.818
986.482
986.129
985.759
985.376
984.98
984.573
984.157
983.734
983.306
982.876
982.447
982.02
981.597
981.182
980.777
980.384
980.005
979.643
979.299
978.974
978.671
978.391
978.134
977.901
977.693
977.51
977.351
977.216
977.105
977.017
976.949
976.901
976.871
976.858
976.858
976.871
976.893
976.923
976.957
976.994
977.032
977.067
977.099
977.124
977.14
977.146
977.141
977.121
977.088
977.037
976.971
976.886
976.782
976.659
976.517
976.354
976.17
975.965
975.74
975.491
975.214
974.92
974.603
974.238
973.84
973.45
972.987
972.383
971.828
971.347
970.354
969.092
968.636
967.587
963.629
960.066
958.303
1019.71
1024.53
1019.81
1015.46
1015.68
1015.38
1013.96
1012.99
1012.77
1012.4
1011.85
1011.45
1011.18
1010.88
1010.57
1010.29
1010.04
1009.78
1009.53
1009.28
1009.04
1008.8
1008.56
1008.31
1008.06
1007.81
1007.56
1007.3
1007.03
1006.75
1006.47
1006.18
1005.88
1005.57
1005.25
1004.92
1004.57
1004.22
1003.85
1003.46
1003.07
1002.65
1002.23
1001.78
1001.32
1000.85
1000.35
999.844
999.318
998.776
998.216
997.641
997.049
996.441
995.818
995.181
994.531
993.868
993.193
992.509
991.815
991.114
990.406
989.695
988.98
988.266
987.552
986.841
986.134
985.435
984.743
984.062
983.392
982.736
982.094
981.469
980.862
980.273
979.703
979.154
978.626
978.12
977.636
977.174
976.734
976.317
975.921
975.549
975.197
974.868
974.559
974.27
974.002
973.753
973.522
973.31
973.115
972.937
972.775
972.628
972.497
972.379
972.276
972.185
972.107
972.04
971.985
971.941
971.907
971.883
971.869
971.863
971.866
971.877
971.896
971.922
971.955
971.994
972.04
972.092
972.149
972.212
972.28
972.352
972.429
972.511
972.596
972.685
972.779
972.876
972.976
973.08
973.187
973.298
973.412
973.529
973.651
973.775
973.904
974.037
974.174
974.315
974.462
974.613
974.771
974.934
975.104
975.281
975.465
975.657
975.857
976.066
976.284
976.511
976.748
976.995
977.251
977.518
977.794
978.081
978.377
978.682
978.997
979.319
979.65
979.988
980.333
980.684
981.039
981.398
981.76
982.123
982.488
982.852
983.215
983.575
983.931
984.284
984.631
984.971
985.303
985.628
985.943
986.248
986.542
986.825
987.096
987.355
987.601
987.833
988.052
988.257
988.447
988.624
988.785
988.932
989.065
989.183
989.286
989.375
989.449
989.508
989.553
989.582
989.596
989.595
989.578
989.546
989.497
989.431
989.347
989.246
989.127
988.988
988.83
988.653
988.456
988.238
988
987.742
987.464
987.166
986.85
986.515
986.163
985.795
985.413
985.017
984.61
984.194
983.77
983.342
982.911
982.479
982.049
981.625
981.207
980.798
980.402
980.02
979.654
979.306
978.978
978.672
978.387
978.127
977.891
977.679
977.493
977.331
977.194
977.08
976.989
976.919
976.869
976.838
976.824
976.823
976.835
976.857
976.887
976.922
976.96
976.999
977.035
977.067
977.093
977.111
977.119
977.114
977.096
977.064
977.015
976.948
976.864
976.762
976.639
976.496
976.334
976.15
975.942
975.716
975.469
975.19
974.886
974.575
974.224
973.795
973.386
973.005
972.388
971.649
971.336
970.727
968.858
968.11
969.049
964.991
959.75
963.986
1019.43
1018.14
1017.58
1018.75
1016.21
1014.08
1014.01
1013.91
1012.98
1012.25
1012
1011.72
1011.3
1010.94
1010.68
1010.41
1010.12
1009.85
1009.61
1009.36
1009.1
1008.86
1008.61
1008.36
1008.11
1007.86
1007.6
1007.33
1007.06
1006.78
1006.5
1006.21
1005.9
1005.59
1005.27
1004.94
1004.59
1004.23
1003.86
1003.47
1003.07
1002.66
1002.23
1001.78
1001.32
1000.84
1000.35
999.837
999.308
998.763
998.201
997.622
997.028
996.417
995.791
995.151
994.498
993.832
993.154
992.467
991.77
991.066
990.356
989.642
988.925
988.208
987.492
986.78
986.072
985.371
984.679
983.997
983.328
982.672
982.031
981.408
980.801
980.214
979.647
979.101
978.575
978.072
977.591
977.132
976.695
976.281
975.89
975.52
975.172
974.846
974.54
974.254
973.989
973.743
973.515
973.305
973.112
972.937
972.777
972.632
972.503
972.387
972.284
972.195
972.118
972.053
971.999
971.956
971.923
971.9
971.887
971.882
971.886
971.898
971.917
971.943
971.977
972.017
972.064
972.116
972.174
972.237
972.305
972.378
972.456
972.537
972.622
972.712
972.805
972.902
973.003
973.106
973.213
973.323
973.437
973.554
973.674
973.798
973.926
974.057
974.193
974.333
974.479
974.629
974.785
974.947
975.115
975.29
975.472
975.662
975.861
976.068
976.284
976.509
976.745
976.989
977.244
977.509
977.785
978.07
978.365
978.669
978.983
979.305
979.635
979.973
980.317
980.668
981.023
981.382
981.744
982.108
982.473
982.838
983.201
983.562
983.919
984.272
984.62
984.961
985.295
985.62
985.936
986.242
986.538
986.822
987.094
987.353
987.6
987.833
988.053
988.258
988.449
988.626
988.788
988.936
989.069
989.187
989.291
989.38
989.455
989.514
989.559
989.59
989.605
989.605
989.59
989.558
989.511
989.447
989.365
989.267
989.15
989.014
988.859
988.684
988.489
988.274
988.038
987.782
987.506
987.21
986.894
986.561
986.209
985.841
985.457
985.06
984.652
984.233
983.807
983.375
982.94
982.504
982.07
981.641
981.218
980.805
980.404
980.016
979.645
979.293
978.96
978.649
978.361
978.096
977.856
977.642
977.453
977.289
977.149
977.034
976.942
976.872
976.822
976.791
976.777
976.778
976.792
976.815
976.847
976.885
976.925
976.966
977.005
977.041
977.07
977.09
977.101
977.099
977.084
977.053
977.006
976.942
976.859
976.758
976.637
976.495
976.331
976.149
975.944
975.714
975.464
975.197
974.895
974.557
974.22
973.857
973.385
972.907
972.534
971.93
971.015
970.58
970.23
968.449
966.956
967.238
966.626
965.157
1019.43
1017.22
1017.13
1017
1015.49
1015.06
1014.47
1013.6
1012.97
1012.65
1012.25
1011.78
1011.41
1011.12
1010.82
1010.51
1010.23
1009.97
1009.71
1009.45
1009.19
1008.94
1008.69
1008.44
1008.18
1007.92
1007.66
1007.4
1007.12
1006.84
1006.55
1006.26
1005.95
1005.64
1005.31
1004.98
1004.63
1004.27
1003.9
1003.51
1003.1
1002.69
1002.25
1001.81
1001.34
1000.86
1000.36
999.846
999.314
998.765
998.198
997.615
997.016
996.4
995.77
995.124
994.465
993.794
993.111
992.418
991.715
991.005
990.29
989.571
988.849
988.127
987.407
986.69
985.978
985.274
984.579
983.895
983.224
982.567
981.926
981.303
980.697
980.111
979.546
979.001
978.479
977.978
977.5
977.045
976.613
976.202
975.815
975.45
975.106
974.784
974.482
974.201
973.939
973.697
973.472
973.266
973.077
972.904
972.747
972.605
972.478
972.364
972.264
972.177
972.101
972.038
971.986
971.944
971.912
971.891
971.878
971.875
971.88
971.893
971.913
971.941
971.975
972.017
972.064
972.118
972.177
972.24
972.31
972.384
972.462
972.544
972.63
972.72
972.814
972.911
973.012
973.116
973.223
973.333
973.447
973.563
973.684
973.807
973.934
974.065
974.2
974.339
974.484
974.633
974.787
974.948
975.114
975.288
975.469
975.658
975.854
976.06
976.274
976.498
976.732
976.976
977.229
977.493
977.768
978.052
978.346
978.65
978.964
979.286
979.616
979.955
980.3
980.65
981.006
981.366
981.729
982.094
982.46
982.826
983.191
983.553
983.912
984.267
984.616
984.959
985.294
985.62
985.938
986.245
986.542
986.827
987.101
987.361
987.609
987.843
988.064
988.27
988.462
988.639
988.802
988.951
989.084
989.203
989.307
989.397
989.472
989.533
989.578
989.609
989.626
989.627
989.613
989.583
989.538
989.476
989.397
989.301
989.186
989.053
988.901
988.728
988.536
988.323
988.09
987.835
987.56
987.265
986.949
986.615
986.262
985.892
985.506
985.106
984.694
984.271
983.84
983.403
982.962
982.52
982.08
981.644
981.215
980.795
980.388
979.994
979.617
979.259
978.921
978.605
978.312
978.044
977.8
977.583
977.392
977.226
977.086
976.97
976.878
976.808
976.76
976.731
976.719
976.723
976.739
976.767
976.803
976.844
976.889
976.934
976.978
977.018
977.051
977.076
977.091
977.093
977.081
977.054
977.01
976.949
976.869
976.769
976.65
976.51
976.348
976.166
975.964
975.739
975.486
975.217
974.932
974.601
974.238
973.901
973.508
972.969
972.524
972.2
971.406
970.491
970.482
969.831
967.825
967.786
968.19
966.87
1017.33
1017.34
1016.9
1015.4
1015.51
1015.35
1014.15
1013.5
1013.32
1012.88
1012.28
1011.9
1011.63
1011.29
1010.94
1010.65
1010.38
1010.1
1009.83
1009.57
1009.31
1009.06
1008.8
1008.54
1008.29
1008.02
1007.76
1007.49
1007.21
1006.93
1006.64
1006.34
1006.03
1005.72
1005.39
1005.05
1004.7
1004.33
1003.96
1003.57
1003.16
1002.74
1002.3
1001.85
1001.38
1000.9
1000.39
999.874
999.336
998.781
998.208
997.619
997.013
996.39
995.752
995.099
994.432
993.753
993.061
992.359
991.649
990.93
990.206
989.479
988.749
988.02
987.292
986.568
985.85
985.14
984.44
983.752
983.077
982.418
981.775
981.15
980.544
979.959
979.395
978.852
978.332
977.835
977.361
976.91
976.481
976.076
975.693
975.333
974.995
974.678
974.381
974.105
973.848
973.61
973.391
973.189
973.003
972.834
972.681
972.542
972.418
972.307
972.21
972.125
972.052
971.99
971.94
971.9
971.87
971.849
971.839
971.836
971.842
971.856
971.878
971.907
971.943
971.986
972.035
972.09
972.15
972.215
972.286
972.361
972.441
972.525
972.613
972.704
972.799
972.898
973
973.105
973.213
973.324
973.438
973.556
973.676
973.8
973.927
974.058
974.193
974.332
974.475
974.624
974.778
974.938
975.104
975.276
975.456
975.644
975.84
976.044
976.258
976.481
976.714
976.957
977.21
977.474
977.748
978.032
978.326
978.631
978.945
979.268
979.599
979.938
980.283
980.636
980.993
981.354
981.719
982.086
982.453
982.821
983.187
983.551
983.912
984.268
984.619
984.964
985.3
985.629
985.948
986.257
986.555
986.842
987.117
987.379
987.628
987.863
988.084
988.292
988.485
988.663
988.827
988.976
989.11
989.23
989.334
989.425
989.5
989.562
989.608
989.64
989.658
989.66
989.648
989.62
989.577
989.517
989.44
989.346
989.234
989.104
988.954
988.784
988.594
988.383
988.151
987.898
987.623
987.327
987.012
986.675
986.32
985.947
985.557
985.153
984.735
984.306
983.868
983.424
982.976
982.526
982.078
981.634
981.197
980.77
980.354
979.954
979.57
979.206
978.862
978.541
978.244
977.971
977.725
977.505
977.312
977.145
977.005
976.889
976.798
976.731
976.685
976.659
976.651
976.658
976.679
976.711
976.753
976.8
976.85
976.902
976.951
976.997
977.036
977.067
977.087
977.094
977.088
977.065
977.026
976.968
976.891
976.795
976.678
976.54
976.383
976.203
976
975.781
975.539
975.264
974.977
974.683
974.333
973.938
973.603
973.225
972.635
972.162
971.938
971.199
970.226
970.166
969.961
968.933
968.488
969.003
1016.28
1016.66
1016.16
1015.5
1015.29
1014.53
1014.15
1013.88
1013.3
1012.76
1012.46
1012.15
1011.75
1011.39
1011.11
1010.83
1010.53
1010.25
1009.98
1009.72
1009.46
1009.2
1008.94
1008.68
1008.42
1008.15
1007.88
1007.61
1007.33
1007.05
1006.75
1006.45
1006.14
1005.82
1005.49
1005.15
1004.8
1004.43
1004.05
1003.65
1003.24
1002.82
1002.38
1001.92
1001.45
1000.96
1000.45
999.919
999.375
998.812
998.232
997.634
997.019
996.387
995.739
995.076
994.398
993.708
993.005
992.292
991.569
990.839
990.104
989.365
988.624
987.884
987.146
986.413
985.686
984.968
984.261
983.567
982.887
982.223
981.576
980.949
980.343
979.757
979.194
978.653
978.135
977.641
977.171
976.724
976.301
975.901
975.524
975.17
974.837
974.526
974.236
973.966
973.715
973.482
973.268
973.072
972.891
972.727
972.577
972.443
972.322
972.214
972.119
972.037
971.966
971.907
971.858
971.82
971.791
971.772
971.763
971.762
971.769
971.784
971.808
971.838
971.876
971.92
971.97
972.026
972.089
972.156
972.229
972.306
972.388
972.474
972.564
972.658
972.756
972.857
972.961
973.068
973.178
973.291
973.407
973.526
973.648
973.774
973.902
974.034
974.171
974.31
974.454
974.603
974.758
974.918
975.084
975.257
975.436
975.624
975.82
976.024
976.238
976.461
976.694
976.938
977.191
977.455
977.73
978.014
978.31
978.615
978.93
979.254
979.587
979.927
980.274
980.628
980.987
981.35
981.716
982.085
982.454
982.823
983.192
983.558
983.92
984.279
984.631
984.977
985.316
985.646
985.967
986.278
986.577
986.866
987.142
987.405
987.655
987.892
988.115
988.323
988.517
988.696
988.861
989.011
989.146
989.266
989.371
989.463
989.539
989.601
989.648
989.681
989.7
989.704
989.693
989.667
989.625
989.567
989.493
989.401
989.292
989.164
989.016
988.849
988.66
988.451
988.22
987.967
987.692
987.396
987.078
986.739
986.38
986.003
985.608
985.197
984.773
984.336
983.89
983.437
982.98
982.522
982.064
981.612
981.166
980.729
980.306
979.897
979.506
979.135
978.786
978.459
978.157
977.882
977.632
977.411
977.216
977.049
976.909
976.794
976.705
976.64
976.598
976.576
976.572
976.585
976.612
976.651
976.698
976.752
976.81
976.868
976.925
976.978
977.024
977.062
977.089
977.102
977.102
977.085
977.05
976.997
976.925
976.833
976.72
976.586
976.432
976.258
976.06
975.84
975.607
975.349
975.057
974.761
974.462
974.09
973.689
973.386
972.99
972.38
972.031
971.828
971.051
970.475
970.55
970.122
969.784
970.261
1016.01
1015.69
1015.44
1015.56
1014.9
1014.3
1014.19
1013.74
1013.22
1012.91
1012.61
1012.2
1011.85
1011.57
1011.28
1010.97
1010.68
1010.42
1010.15
1009.88
1009.61
1009.36
1009.1
1008.83
1008.57
1008.3
1008.03
1007.76
1007.48
1007.19
1006.89
1006.59
1006.28
1005.95
1005.62
1005.28
1004.92
1004.55
1004.16
1003.77
1003.35
1002.92
1002.48
1002.01
1001.53
1001.03
1000.52
999.983
999.43
998.858
998.268
997.66
997.033
996.39
995.73
995.054
994.363
993.659
992.942
992.215
991.478
990.734
989.984
989.231
988.476
987.723
986.972
986.226
985.488
984.759
984.043
983.34
982.653
981.983
981.332
980.702
980.093
979.507
978.944
978.404
977.889
977.399
976.932
976.491
976.073
975.68
975.309
974.962
974.636
974.332
974.049
973.785
973.541
973.315
973.107
972.916
972.741
972.582
972.437
972.306
972.189
972.085
971.993
971.913
971.845
971.787
971.74
971.703
971.676
971.658
971.65
971.65
971.658
971.674
971.699
971.73
971.769
971.814
971.867
971.925
971.989
972.059
972.134
972.214
972.299
972.388
972.481
972.578
972.679
972.784
972.891
973.002
973.116
973.232
973.352
973.474
973.599
973.727
973.859
973.994
974.133
974.275
974.421
974.572
974.728
974.89
975.058
975.232
975.413
975.602
975.799
976.005
976.219
976.443
976.678
976.922
977.177
977.443
977.719
978.005
978.302
978.609
978.925
979.251
979.585
979.927
980.276
980.632
980.992
981.357
981.725
982.095
982.467
982.838
983.208
983.575
983.939
984.299
984.653
985.001
985.341
985.672
985.995
986.307
986.608
986.897
987.175
987.439
987.691
987.929
988.152
988.362
988.557
988.737
988.902
989.053
989.189
989.31
989.416
989.508
989.585
989.648
989.696
989.73
989.75
989.755
989.745
989.721
989.681
989.625
989.553
989.463
989.356
989.23
989.084
988.918
988.732
988.523
988.293
988.04
987.764
987.466
987.145
986.803
986.44
986.056
985.655
985.237
984.805
984.36
983.904
983.442
982.975
982.506
982.039
981.576
981.121
980.675
980.243
979.826
979.428
979.05
978.695
978.363
978.057
977.777
977.525
977.302
977.106
976.939
976.799
976.687
976.6
976.539
976.5
976.483
976.485
976.504
976.538
976.584
976.639
976.701
976.766
976.833
976.898
976.96
977.014
977.06
977.094
977.115
977.122
977.111
977.083
977.036
976.97
976.882
976.775
976.647
976.497
976.327
976.139
975.925
975.691
975.448
975.181
974.873
974.573
974.286
973.903
973.495
973.235
972.874
972.279
971.98
971.866
971.34
970.91
971
971.099
971.091
1015.55
1015.34
1015.2
1014.99
1014.58
1014.42
1014
1013.54
1013.31
1013
1012.59
1012.27
1012.01
1011.71
1011.39
1011.11
1010.85
1010.58
1010.3
1010.04
1009.79
1009.53
1009.26
1009
1008.74
1008.47
1008.2
1007.92
1007.64
1007.35
1007.06
1006.75
1006.44
1006.11
1005.78
1005.43
1005.07
1004.69
1004.3
1003.9
1003.48
1003.05
1002.6
1002.13
1001.64
1001.13
1000.61
1000.06
999.501
998.919
998.318
997.697
997.058
996.401
995.726
995.035
994.329
993.608
992.875
992.13
991.375
990.614
989.846
989.076
988.305
987.535
986.768
986.008
985.256
984.515
983.787
983.074
982.378
981.701
981.045
980.41
979.799
979.211
978.647
978.11
977.597
977.11
976.649
976.212
975.801
975.414
975.051
974.711
974.394
974.097
973.822
973.566
973.329
973.111
972.909
972.725
972.556
972.402
972.262
972.136
972.023
971.922
971.833
971.755
971.689
971.633
971.587
971.552
971.525
971.508
971.499
971.5
971.509
971.526
971.551
971.583
971.623
971.669
971.723
971.782
971.849
971.921
971.999
972.082
972.17
972.263
972.36
972.461
972.566
972.675
972.788
972.904
973.022
973.144
973.269
973.396
973.526
973.659
973.796
973.935
974.079
974.225
974.376
974.531
974.691
974.856
975.027
975.205
975.389
975.581
975.781
975.989
976.207
976.434
976.67
976.918
977.175
977.443
977.721
978.009
978.308
978.617
978.935
979.263
979.599
979.943
980.294
980.651
981.013
981.38
981.749
982.121
982.493
982.866
983.237
983.606
983.971
984.332
984.687
985.035
985.376
985.708
986.031
986.344
986.646
986.937
987.215
987.481
987.732
987.971
988.196
988.406
988.602
988.783
988.949
989.101
989.237
989.359
989.466
989.558
989.636
989.7
989.749
989.784
989.805
989.811
989.803
989.78
989.741
989.687
989.616
989.529
989.423
989.299
989.154
988.99
988.804
988.596
988.366
988.112
987.835
987.534
987.21
986.863
986.495
986.105
985.697
985.271
984.83
984.375
983.91
983.437
982.96
982.481
982.003
981.53
981.064
980.609
980.168
979.743
979.337
978.953
978.591
978.254
977.943
977.66
977.406
977.18
976.984
976.817
976.679
976.569
976.485
976.427
976.393
976.382
976.39
976.416
976.457
976.511
976.575
976.645
976.72
976.796
976.871
976.941
977.005
977.06
977.103
977.133
977.147
977.145
977.124
977.084
977.024
976.943
976.842
976.721
976.578
976.413
976.23
976.03
975.804
975.559
975.314
975.041
974.725
974.437
974.161
973.775
973.405
973.188
972.833
972.362
972.18
972.024
971.714
971.658
971.755
971.955
1015.04
1015.05
1014.94
1014.58
1014.45
1014.26
1013.82
1013.57
1013.31
1012.94
1012.64
1012.39
1012.09
1011.78
1011.52
1011.26
1010.99
1010.72
1010.47
1010.21
1009.95
1009.7
1009.44
1009.18
1008.92
1008.65
1008.38
1008.11
1007.82
1007.53
1007.24
1006.93
1006.61
1006.29
1005.95
1005.6
1005.23
1004.86
1004.46
1004.06
1003.63
1003.19
1002.74
1002.26
1001.76
1001.25
1000.72
1000.16
999.587
998.993
998.379
997.744
997.091
996.418
995.727
995.018
994.294
993.555
992.802
992.037
991.263
990.481
989.693
988.903
988.112
987.323
986.538
985.76
984.992
984.236
983.495
982.77
982.064
981.378
980.715
980.075
979.46
978.871
978.308
977.771
977.262
976.778
976.323
975.892
975.488
975.109
974.754
974.422
974.114
973.826
973.559
973.312
973.084
972.873
972.679
972.502
972.339
972.191
972.056
971.935
971.826
971.728
971.642
971.567
971.502
971.447
971.402
971.367
971.341
971.324
971.315
971.315
971.324
971.341
971.365
971.398
971.438
971.485
971.539
971.6
971.668
971.742
971.823
971.909
972
972.097
972.199
972.305
972.416
972.531
972.649
972.771
972.897
973.025
973.157
973.291
973.429
973.569
973.712
973.859
974.008
974.162
974.319
974.481
974.647
974.818
974.995
975.178
975.368
975.565
975.77
975.982
976.204
976.435
976.676
976.927
977.187
977.458
977.74
978.031
978.333
978.645
978.966
979.296
979.633
979.979
980.332
980.691
981.054
981.422
981.792
982.164
982.538
982.911
983.282
983.651
984.017
984.377
984.733
985.081
985.422
985.754
986.077
986.39
986.692
986.982
987.261
987.526
987.779
988.017
988.242
988.453
988.649
988.831
988.997
989.149
989.287
989.409
989.517
989.611
989.689
989.754
989.804
989.84
989.862
989.869
989.862
989.84
989.802
989.749
989.68
989.593
989.489
989.366
989.223
989.059
988.874
988.666
988.435
988.18
987.9
987.597
987.269
986.917
986.543
986.147
985.731
985.297
984.846
984.382
983.907
983.423
982.935
982.445
981.957
981.473
980.998
980.534
980.083
979.65
979.237
978.845
978.477
978.135
977.82
977.534
977.277
977.05
976.853
976.686
976.549
976.441
976.361
976.307
976.278
976.272
976.287
976.321
976.37
976.433
976.505
976.586
976.67
976.757
976.842
976.923
976.997
977.061
977.114
977.154
977.177
977.184
977.172
977.14
977.088
977.015
976.921
976.805
976.671
976.516
976.338
976.146
975.939
975.704
975.454
975.212
974.94
974.622
974.353
974.1
973.729
973.399
973.226
972.938
972.578
972.457
972.424
972.3
972.324
972.663
1014.75
1014.73
1014.61
1014.45
1014.29
1013.98
1013.78
1013.57
1013.22
1012.95
1012.72
1012.44
1012.14
1011.9
1011.65
1011.38
1011.12
1010.87
1010.62
1010.37
1010.12
1009.87
1009.62
1009.36
1009.1
1008.84
1008.57
1008.29
1008.01
1007.72
1007.43
1007.12
1006.8
1006.48
1006.14
1005.78
1005.42
1005.04
1004.64
1004.23
1003.8
1003.36
1002.89
1002.41
1001.9
1001.38
1000.84
1000.27
999.687
999.08
998.451
997.802
997.132
996.442
995.732
995.004
994.26
993.499
992.724
991.937
991.14
990.335
989.524
988.711
987.897
987.087
986.281
985.483
984.697
983.924
983.167
982.428
981.711
981.015
980.344
979.699
979.08
978.489
977.926
977.391
976.885
976.407
975.956
975.534
975.137
974.767
974.421
974.099
973.799
973.522
973.265
973.027
972.808
972.606
972.42
972.25
972.095
971.953
971.823
971.707
971.602
971.508
971.425
971.351
971.288
971.234
971.19
971.154
971.128
971.109
971.1
971.099
971.106
971.122
971.145
971.177
971.216
971.263
971.317
971.379
971.448
971.524
971.607
971.696
971.791
971.892
971.998
972.11
972.227
972.349
972.474
972.604
972.737
972.875
973.015
973.158
973.305
973.455
973.608
973.764
973.923
974.086
974.252
974.423
974.598
974.778
974.963
975.154
975.351
975.556
975.767
975.987
976.215
976.452
976.698
976.954
977.22
977.496
977.781
978.077
978.382
978.697
979.02
979.352
979.693
980.04
980.394
980.754
981.118
981.486
981.856
982.229
982.602
982.974
983.345
983.714
984.078
984.438
984.792
985.139
985.479
985.81
986.131
986.443
986.744
987.033
987.311
987.576
987.827
988.065
988.29
988.5
988.696
988.878
989.044
989.196
989.334
989.457
989.566
989.659
989.739
989.804
989.855
989.892
989.915
989.923
989.917
989.896
989.859
989.807
989.738
989.653
989.549
989.427
989.284
989.121
988.935
988.727
988.495
988.238
987.957
987.65
987.319
986.962
986.582
986.179
985.756
985.313
984.853
984.379
983.894
983.4
982.901
982.401
981.902
981.408
980.923
980.45
979.991
979.549
979.128
978.73
978.357
978.009
977.69
977.4
977.141
976.912
976.715
976.548
976.413
976.307
976.23
976.18
976.156
976.157
976.179
976.22
976.278
976.35
976.432
976.523
976.618
976.715
976.811
976.903
976.988
977.064
977.128
977.178
977.211
977.228
977.225
977.203
977.159
977.095
977.01
976.903
976.776
976.631
976.466
976.279
976.081
975.87
975.631
975.383
975.15
974.882
974.578
974.336
974.097
973.767
973.505
973.344
973.116
972.913
972.853
972.84
972.909
973.158
1014.54
1014.46
1014.36
1014.3
1014.1
1013.88
1013.72
1013.46
1013.21
1013
1012.73
1012.47
1012.24
1012
1011.74
1011.49
1011.26
1011.01
1010.77
1010.53
1010.29
1010.04
1009.79
1009.54
1009.29
1009.03
1008.76
1008.49
1008.21
1007.92
1007.63
1007.32
1007
1006.68
1006.34
1005.98
1005.61
1005.23
1004.83
1004.42
1003.98
1003.53
1003.06
1002.57
1002.06
1001.53
1000.97
1000.4
999.799
999.178
998.535
997.869
997.181
996.472
995.742
994.993
994.225
993.442
992.642
991.83
991.007
990.177
989.34
988.501
987.662
986.827
985.997
985.177
984.37
983.577
982.803
982.049
981.318
980.612
979.932
979.281
978.658
978.065
977.503
976.97
976.468
975.995
975.552
975.137
974.75
974.389
974.054
973.743
973.455
973.188
972.942
972.714
972.505
972.313
972.137
971.975
971.827
971.692
971.569
971.457
971.356
971.265
971.185
971.113
971.051
970.997
970.952
970.916
970.888
970.869
970.857
970.854
970.859
970.873
970.894
970.924
970.961
971.007
971.061
971.122
971.191
971.268
971.353
971.444
971.543
971.648
971.759
971.877
972
972.129
972.263
972.401
972.544
972.692
972.843
972.997
973.155
973.317
973.482
973.65
973.821
973.996
974.175
974.357
974.544
974.735
974.931
975.133
975.341
975.555
975.776
976.005
976.242
976.487
976.74
977.003
977.275
977.556
977.847
978.148
978.457
978.775
979.102
979.437
979.779
980.128
980.483
980.843
981.208
981.575
981.945
982.317
982.688
983.059
983.428
983.794
984.157
984.514
984.865
985.21
985.547
985.876
986.195
986.504
986.802
987.089
987.364
987.627
987.877
988.113
988.336
988.545
988.74
988.92
989.087
989.238
989.375
989.498
989.607
989.701
989.781
989.847
989.898
989.936
989.959
989.968
989.962
989.942
989.906
989.855
989.787
989.702
989.599
989.476
989.334
989.171
988.985
988.776
988.542
988.284
988
987.691
987.355
986.994
986.608
986.199
985.768
985.318
984.849
984.366
983.871
983.367
982.859
982.348
981.84
981.336
980.842
980.359
979.892
979.443
979.014
978.61
978.23
977.878
977.554
977.261
976.999
976.769
976.57
976.404
976.27
976.167
976.093
976.048
976.03
976.036
976.065
976.115
976.181
976.263
976.355
976.457
976.563
976.672
976.78
976.884
976.981
977.068
977.143
977.205
977.25
977.277
977.285
977.272
977.239
977.184
977.109
977.013
976.895
976.757
976.605
976.432
976.239
976.04
975.831
975.591
975.35
975.131
974.872
974.589
974.374
974.158
973.877
973.666
973.541
973.383
973.26
973.266
973.341
973.52
1014.32
1014.29
1014.22
1014.1
1013.95
1013.83
1013.62
1013.39
1013.22
1012.99
1012.74
1012.53
1012.31
1012.07
1011.83
1011.61
1011.38
1011.14
1010.91
1010.68
1010.44
1010.2
1009.96
1009.72
1009.47
1009.21
1008.95
1008.68
1008.41
1008.12
1007.83
1007.53
1007.21
1006.88
1006.54
1006.19
1005.82
1005.44
1005.03
1004.62
1004.18
1003.72
1003.25
1002.75
1002.23
1001.69
1001.12
1000.53
999.923
999.288
998.628
997.944
997.238
996.508
995.756
994.984
994.191
993.382
992.556
991.716
990.865
990.005
989.14
988.272
987.405
986.542
985.686
984.841
984.01
983.196
982.403
981.632
980.886
980.169
979.48
978.821
978.195
977.6
977.038
976.509
976.012
975.546
975.111
974.705
974.329
973.979
973.656
973.357
973.081
972.827
972.593
972.377
972.179
971.998
971.831
971.678
971.539
971.411
971.294
971.188
971.091
971.004
970.926
970.856
970.794
970.74
970.695
970.657
970.628
970.606
970.592
970.585
970.587
970.598
970.616
970.643
970.677
970.721
970.773
970.833
970.902
970.979
971.064
971.157
971.259
971.368
971.484
971.607
971.737
971.874
972.017
972.165
972.319
972.477
972.64
972.808
972.98
973.155
973.334
973.517
973.703
973.893
974.086
974.283
974.484
974.69
974.9
975.116
975.337
975.564
975.797
976.037
976.285
976.54
976.803
977.074
977.354
977.643
977.94
978.246
978.561
978.883
979.213
979.551
979.895
980.245
980.601
980.961
981.325
981.692
982.06
982.429
982.798
983.166
983.532
983.895
984.254
984.607
984.954
985.295
985.628
985.952
986.267
986.572
986.867