# vtk DataFile Version 2.0
LBE mesh
ASCII
DATASET STRUCTURED_POINTS
DIMENSIONS 300 100 1
ASPECT_RATIO 1 1 1
ORIGIN 0 0 0
POINT_DATA 30000
SCALARS rho double 1
LOOKUP_TABLE default
1047.94
1016.37
1015.65
1022.08
1020.23
1016.33
1016.11
1016.6
1015.8
1014.98
1014.78
1014.58
1014.17
1013.83
1013.59
1013.34
1013.05
1012.79
1012.55
1012.3
1012.04
1011.8
1011.55
1011.29
1011.04
1010.78
1010.52
1010.25
1009.98
1009.7
1009.41
1009.12
1008.81
1008.5
1008.17
1007.83
1007.49
1007.13
1006.75
1006.36
1005.96
1005.54
1005.11
1004.66
1004.19
1003.71
1003.21
1002.69
1002.16
1001.6
1001.03
1000.45
999.846
999.228
998.594
997.946
997.284
996.609
995.923
995.225
994.518
993.803
993.082
992.356
991.625
990.893
990.161
989.43
988.702
987.98
987.263
986.555
985.857
985.171
984.497
983.838
983.194
982.567
981.957
981.367
980.796
980.245
979.715
979.207
978.72
978.255
977.812
977.391
976.993
976.616
976.261
975.927
975.614
975.322
975.048
974.795
974.56
974.343
974.144
973.961
973.795
973.644
973.507
973.386
973.278
973.183
973.102
973.034
972.978
972.934
972.902
972.882
972.874
972.877
972.892
972.917
972.955
973.002
973.061
973.129
973.207
973.295
973.392
973.498
973.612
973.734
973.863
974
974.142
974.291
974.444
974.603
974.766
974.933
975.103
975.276
975.452
975.63
975.809
975.991
976.173
976.357
976.541
976.725
976.91
977.094
977.278
977.46
977.642
977.823
978.002
978.179
978.354
978.527
978.697
978.864
979.027
979.188
979.344
979.497
979.645
979.79
979.929
980.064
980.194
980.32
980.44
980.556
980.666
980.771
980.872
980.967
981.057
981.142
981.222
981.297
981.366
981.429
981.486
981.538
981.583
981.621
981.653
981.677
981.694
981.702
981.702
981.694
981.676
981.649
981.614
981.568
981.514
981.45
981.378
981.297
981.208
981.111
981.007
980.897
980.782
980.662
980.539
980.415
980.289
980.164
980.04
979.919
979.803
979.693
979.59
979.495
979.41
979.335
979.273
979.223
979.187
979.166
979.159
979.169
979.193
979.234
979.291
979.363
979.451
979.555
979.673
979.805
979.95
980.108
980.278
980.458
980.647
980.845
981.051
981.263
981.479
981.7
981.923
982.148
982.374
982.599
982.823
983.045
983.263
983.477
983.686
983.89
984.087
984.277
984.459
984.634
984.799
984.957
985.104
985.242
985.371
985.489
985.597
985.695
985.783
985.861
985.928
985.985
986.032
986.07
986.097
986.114
986.121
986.119
986.106
986.084
986.052
986.011
985.959
985.896
985.823
985.739
985.642
985.534
985.413
985.274
985.118
984.952
984.762
984.53
984.292
984.055
983.707
983.279
983.004
982.608
981.626
980.976
981.192
979.292
975.501
977.707
978.664
954.695
1030.89
1027.37
1023.29
1018.09
1018.26
1018.4
1017.2
1016.02
1015.76
1015.48
1014.97
1014.54
1014.27
1013.98
1013.66
1013.38
1013.12
1012.85
1012.59
1012.33
1012.08
1011.82
1011.57
1011.31
1011.05
1010.79
1010.52
1010.25
1009.98
1009.69
1009.4
1009.11
1008.8
1008.48
1008.15
1007.81
1007.46
1007.1
1006.72
1006.33
1005.93
1005.51
1005.07
1004.62
1004.15
1003.67
1003.17
1002.65
1002.11
1001.56
1000.99
1000.4
999.799
999.18
998.547
997.899
997.237
996.563
995.877
995.18
994.474
993.761
993.041
992.316
991.588
990.858
990.129
989.4
988.675
987.956
987.242
986.538
985.843
985.16
984.489
983.833
983.192
982.568
981.962
981.375
980.807
980.259
979.732
979.226
978.741
978.279
977.838
977.419
977.023
976.647
976.294
975.962
975.65
975.359
975.087
974.834
974.6
974.384
974.186
974.003
973.837
973.686
973.55
973.429
973.322
973.227
973.146
973.078
973.022
972.978
972.946
972.927
972.919
972.922
972.937
972.962
972.999
973.047
973.105
973.173
973.251
973.339
973.436
973.541
973.655
973.776
973.905
974.041
974.182
974.33
974.483
974.641
974.803
974.969
975.138
975.31
975.485
975.662
975.841
976.022
976.203
976.386
976.569
976.752
976.936
977.119
977.302
977.484
977.665
977.844
978.023
978.199
978.373
978.545
978.714
978.88
979.043
979.202
979.358
979.51
979.658
979.801
979.94
980.074
980.204
980.329
980.449
980.564
980.674
980.779
980.879
980.974
981.064
981.148
981.228
981.302
981.37
981.434
981.491
981.542
981.588
981.626
981.658
981.682
981.699
981.708
981.709
981.701
981.684
981.659
981.624
981.58
981.526
981.464
981.393
981.313
981.225
981.129
981.027
980.918
980.803
980.685
980.562
980.438
980.313
980.188
980.064
979.944
979.827
979.716
979.612
979.516
979.43
979.355
979.291
979.24
979.202
979.179
979.17
979.177
979.2
979.239
979.293
979.364
979.45
979.551
979.667
979.797
979.94
980.096
980.264
980.442
980.63
980.827
981.031
981.241
981.457
981.677
981.899
982.124
982.349
982.574
982.797
983.019
983.237
983.451
983.661
983.864
984.062
984.252
984.435
984.61
984.776
984.934
985.082
985.221
985.35
985.469
985.578
985.677
985.765
985.843
985.911
985.969
986.016
986.053
986.081
986.098
986.105
986.102
986.09
986.067
986.035
985.992
985.94
985.876
985.801
985.715
985.617
985.505
985.38
985.241
985.084
984.904
984.709
984.495
984.234
983.939
983.652
983.287
982.771
982.303
981.905
980.963
979.725
979.324
978.248
974.128
970.398
968.441
1022.83
1027.62
1022.96
1018.66
1018.89
1018.59
1017.19
1016.22
1016
1015.62
1015.07
1014.66
1014.38
1014.07
1013.74
1013.45
1013.18
1012.91
1012.64
1012.38
1012.12
1011.86
1011.6
1011.34
1011.08
1010.81
1010.54
1010.27
1009.99
1009.7
1009.41
1009.11
1008.8
1008.48
1008.15
1007.81
1007.46
1007.09
1006.71
1006.32
1005.91
1005.49
1005.05
1004.6
1004.13
1003.64
1003.14
1002.62
1002.08
1001.53
1000.96
1000.37
999.764
999.144
998.509
997.859
997.196
996.521
995.834
995.136
994.43
993.716
992.996
992.271
991.543
990.813
990.083
989.356
988.632
987.913
987.201
986.498
985.805
985.123
984.454
983.8
983.162
982.54
981.936
981.351
980.786
980.24
979.716
979.212
978.73
978.27
977.832
977.416
977.021
976.648
976.297
975.966
975.656
975.366
975.096
974.846
974.613
974.398
974.201
974.019
973.854
973.704
973.569
973.449
973.342
973.248
973.168
973.1
973.045
973.002
972.971
972.951
972.944
972.948
972.963
972.989
973.026
973.075
973.133
973.202
973.28
973.368
973.465
973.57
973.684
973.806
973.934
974.07
974.212
974.359
974.512
974.669
974.831
974.997
975.166
975.338
975.512
975.689
975.867
976.047
976.229
976.411
976.593
976.776
976.959
977.142
977.324
977.505
977.686
977.865
978.043
978.219
978.393
978.564
978.733
978.898
979.061
979.22
979.376
979.528
979.675
979.818
979.957
980.091
980.221
980.345
980.465
980.58
980.69
980.795
980.895
980.99
981.079
981.164
981.243
981.318
981.386
981.45
981.507
981.559
981.605
981.643
981.676
981.701
981.718
981.728
981.73
981.723
981.707
981.682
981.648
981.605
981.552
981.49
981.42
981.34
981.253
981.157
981.055
980.946
980.831
980.712
980.589
980.464
980.338
980.211
980.086
979.964
979.846
979.733
979.627
979.529
979.44
979.363
979.297
979.243
979.203
979.177
979.166
979.17
979.191
979.227
979.28
979.348
979.432
979.532
979.646
979.775
979.917
980.072
980.239
980.417
980.605
980.801
981.005
981.216
981.432
981.652
981.875
982.1
982.326
982.551
982.776
982.998
983.218
983.433
983.644
983.848
984.047
984.239
984.423
984.599
984.766
984.925
985.074
985.214
985.344
985.464
985.573
985.673
985.762
985.841
985.909
985.967
986.015
986.053
986.081
986.098
986.105
986.102
986.089
986.067
986.034
985.991
985.937
985.873
985.798
985.71
985.612
985.499
985.371
985.23
985.075
984.892
984.687
984.479
984.233
983.906
983.598
983.32
982.794
982.131
981.908
981.375
979.5
978.777
979.822
975.591
970.055
974.378
1022.56
1021.29
1020.75
1021.92
1019.4
1017.3
1017.24
1017.13
1016.2
1015.48
1015.22
1014.92
1014.49
1014.12
1013.84
1013.56
1013.26
1012.97
1012.71
1012.44
1012.17
1011.91
1011.65
1011.38
1011.12
1010.85
1010.58
1010.3
1010.02
1009.73
1009.43
1009.13
1008.82
1008.5
1008.16
1007.82
1007.47
1007.1
1006.72
1006.32
1005.91
1005.49
1005.05
1004.6
1004.12
1003.63
1003.13
1002.61
1002.07
1001.51
1000.94
1000.35
999.738
999.115
998.477
997.824
997.158
996.479
995.789
995.089
994.379
993.662
992.939
992.211
991.48
990.748
990.017
989.288
988.562
987.842
987.13
986.426
985.733
985.051
984.383
983.73
983.092
982.472
981.87
981.287
980.724
980.181
979.659
979.158
978.678
978.221
977.786
977.372
976.981
976.61
976.262
975.934
975.627
975.339
975.072
974.823
974.593
974.38
974.184
974.005
973.841
973.693
973.559
973.44
973.335
973.242
973.164
973.097
973.043
973.001
972.971
972.953
972.946
972.951
972.967
972.995
973.033
973.082
973.142
973.211
973.29
973.379
973.477
973.583
973.698
973.82
973.949
974.085
974.228
974.375
974.529
974.686
974.848
975.014
975.184
975.356
975.531
975.708
975.886
976.067
976.248
976.43
976.613
976.796
976.979
977.162
977.345
977.526
977.707
977.886
978.064
978.24
978.414
978.586
978.755
978.921
979.083
979.243
979.399
979.55
979.698
979.842
979.981
980.115
980.245
980.37
980.49
980.605
980.715
980.82
980.92
981.015
981.105
981.19
981.27
981.344
981.414
981.477
981.536
981.588
981.634
981.674
981.707
981.733
981.752
981.762
981.764
981.758
981.743
981.719
981.686
981.643
981.591
981.529
981.459
981.379
981.291
981.194
981.091
980.98
980.865
980.744
980.619
980.491
980.362
980.233
980.105
979.98
979.858
979.742
979.633
979.531
979.439
979.358
979.289
979.232
979.189
979.16
979.146
979.148
979.166
979.2
979.251
979.318
979.4
979.499
979.612
979.741
979.883
980.038
980.205
980.383
980.572
980.769
980.974
981.186
981.403
981.625
981.85
982.077
982.304
982.532
982.759
982.983
983.204
983.421
983.634
983.841
984.041
984.235
984.42
984.598
984.767
984.927
985.078
985.219
985.35
985.472
985.582
985.683
985.773
985.852
985.922
985.98
986.029
986.067
986.095
986.112
986.12
986.117
986.105
986.082
986.049
986.005
985.952
985.888
985.813
985.725
985.625
985.514
985.388
985.244
985.086
984.916
984.716
984.48
984.249
983.993
983.623
983.243
982.974
982.457
981.608
981.256
980.975
979.176
977.687
978.008
977.34
975.7
1022.55
1020.37
1020.3
1020.18
1018.69
1018.26
1017.68
1016.81
1016.18
1015.86
1015.46
1014.98
1014.59
1014.29
1013.98
1013.65
1013.36
1013.08
1012.8
1012.53
1012.25
1011.99
1011.72
1011.45
1011.18
1010.91
1010.63
1010.36
1010.07
1009.78
1009.48
1009.18
1008.86
1008.54
1008.2
1007.86
1007.5
1007.13
1006.75
1006.35
1005.94
1005.51
1005.07
1004.61
1004.14
1003.64
1003.14
1002.61
1002.07
1001.5
1000.93
1000.33
999.72
999.092
998.448
997.79
997.119
996.434
995.738
995.032
994.317
993.594
992.865
992.132
991.396
990.659
989.923
989.189
988.46
987.736
987.021
986.314
985.619
984.936
984.267
983.614
982.976
982.357
981.756
981.175
980.613
980.073
979.553
979.055
978.579
978.125
977.694
977.284
976.895
976.529
976.184
975.859
975.556
975.272
975.007
974.761
974.534
974.324
974.131
973.954
973.793
973.647
973.516
973.399
973.295
973.205
973.128
973.063
973.01
972.97
972.942
972.925
972.921
972.928
972.945
972.975
973.015
973.065
973.127
973.198
973.278
973.369
973.468
973.576
973.692
973.816
973.946
974.084
974.227
974.377
974.531
974.69
974.853
975.02
975.191
975.364
975.54
975.718
975.897
976.079
976.261
976.444
976.628
976.812
976.996
977.18
977.363
977.546
977.727
977.907
978.086
978.263
978.438
978.61
978.78
978.947
979.11
979.27
979.427
979.579
979.727
979.872
980.011
980.146
980.277
980.402
980.523
980.639
980.749
980.855
980.956
981.051
981.142
981.227
981.308
981.383
981.453
981.517
981.576
981.629
981.677
981.717
981.751
981.778
981.797
981.808
981.812
981.807
981.793
981.768
981.736
981.693
981.641
981.579
981.507
981.426
981.337
981.239
981.133
981.02
980.902
980.777
980.649
980.518
980.385
980.252
980.12
979.99
979.864
979.744
979.63
979.524
979.427
979.342
979.268
979.207
979.16
979.128
979.111
979.111
979.126
979.158
979.207
979.273
979.355
979.453
979.566
979.695
979.837
979.993
980.161
980.341
980.531
980.731
980.938
981.152
981.372
981.596
981.824
982.053
982.284
982.515
982.744
982.971
983.195
983.415
983.63
983.84
984.043
984.239
984.427
984.607
984.778
984.94
985.093
985.235
985.368
985.491
985.603
985.705
985.796
985.877
985.947
986.006
986.056
986.094
986.123
986.141
986.149
986.146
986.134
986.112
986.08
986.037
985.984
985.92
985.846
985.76
985.662
985.55
985.428
985.29
985.13
984.96
984.779
984.554
984.298
984.071
983.788
983.349
983.007
982.791
982.075
981.221
981.317
980.716
978.668
978.666
979.102
977.662
1020.47
1020.49
1020.07
1018.59
1018.71
1018.54
1017.36
1016.71
1016.53
1016.08
1015.48
1015.09
1014.81
1014.46
1014.09
1013.78
1013.5
1013.21
1012.92
1012.64
1012.37
1012.09
1011.82
1011.55
1011.28
1011
1010.72
1010.44
1010.15
1009.86
1009.56
1009.25
1008.93
1008.6
1008.27
1007.92
1007.56
1007.18
1006.8
1006.4
1005.98
1005.55
1005.11
1004.65
1004.17
1003.67
1003.16
1002.63
1002.08
1001.51
1000.93
1000.33
999.709
999.074
998.423
997.757
997.077
996.385
995.68
994.965
994.241
993.509
992.772
992.03
991.286
990.541
989.797
989.056
988.32
987.591
986.87
986.159
985.46
984.774
984.103
983.448
982.81
982.19
981.59
981.01
980.45
979.912
979.396
978.901
978.429
977.979
977.551
977.146
976.762
976.4
976.059
975.739
975.44
975.16
974.9
974.658
974.434
974.228
974.038
973.865
973.707
973.564
973.436
973.321
973.22
973.132
973.057
972.995
972.945
972.907
972.881
972.867
972.865
972.874
972.894
972.925
972.968
973.021
973.085
973.158
973.241
973.334
973.436
973.546
973.664
973.79
973.923
974.063
974.209
974.36
974.517
974.678
974.843
975.012
975.185
975.36
975.538
975.717
975.899
976.082
976.266
976.452
976.637
976.823
977.009
977.194
977.379
977.563
977.746
977.928
978.109
978.287
978.463
978.637
978.808
978.976
979.141
979.303
979.46
979.614
979.764
979.909
980.05
980.186
980.318
980.444
980.566
980.682
980.794
980.901
981.002
981.098
981.19
981.276
981.357
981.433
981.504
981.569
981.629
981.683
981.731
981.773
981.808
981.835
981.856
981.868
981.872
981.867
981.853
981.829
981.797
981.753
981.7
981.637
981.565
981.482
981.39
981.289
981.181
981.064
980.942
980.813
980.681
980.544
980.406
980.268
980.13
979.995
979.863
979.737
979.617
979.506
979.404
979.314
979.236
979.17
979.119
979.083
979.063
979.06
979.073
979.103
979.151
979.216
979.297
979.395
979.509
979.638
979.782
979.94
980.11
980.292
980.485
980.686
980.897
981.114
981.337
981.565
981.796
982.03
982.264
982.498
982.732
982.962
983.19
983.413
983.632
983.844
984.05
984.249
984.44
984.623
984.797
984.961
985.116
985.261
985.396
985.52
985.634
985.737
985.83
985.912
985.983
986.044
986.094
986.134
986.163
986.182
986.191
986.19
986.179
986.157
986.126
986.084
986.033
985.971
985.898
985.814
985.72
985.612
985.49
985.359
985.213
985.039
984.858
984.675
984.438
984.155
983.936
983.674
983.188
982.822
982.712
982.051
981.145
981.186
981.043
980.014
979.576
980.084
1019.43
1019.81
1019.33
1018.68
1018.48
1017.73
1017.35
1017.08
1016.5
1015.96
1015.64
1015.33
1014.92
1014.55
1014.25
1013.96
1013.64
1013.34
1013.06
1012.78
1012.5
1012.22
1011.95
1011.67
1011.39
1011.12
1010.83
1010.55
1010.26
1009.96
1009.66
1009.35
1009.03
1008.7
1008.36
1008
1007.64
1007.26
1006.88
1006.47
1006.05
1005.62
1005.17
1004.7
1004.22
1003.72
1003.2
1002.66
1002.11
1001.53
1000.94
1000.33
999.705
999.061
998.4
997.724
997.033
996.33
995.614
994.887
994.151
993.407
992.658
991.905
991.149
990.393
989.639
988.889
988.144
987.406
986.678
985.96
985.255
984.565
983.89
983.232
982.592
981.972
981.372
980.793
980.235
979.699
979.186
978.695
978.226
977.781
977.358
976.957
976.579
976.222
975.886
975.572
975.278
975.003
974.748
974.511
974.292
974.09
973.905
973.735
973.581
973.441
973.316
973.205
973.107
973.023
972.95
972.891
972.844
972.809
972.786
972.774
972.775
972.787
972.81
972.845
972.891
972.947
973.013
973.09
973.177
973.273
973.378
973.491
973.612
973.742
973.878
974.021
974.17
974.324
974.484
974.648
974.817
974.989
975.164
975.343
975.524
975.706
975.891
976.077
976.264
976.452
976.64
976.829
977.017
977.205
977.393
977.58
977.765
977.949
978.132
978.313
978.491
978.667
978.84
979.011
979.177
979.341
979.5
979.656
979.807
979.954
980.097
980.235
980.368
980.496
980.619
980.737
980.85
980.957
981.06
981.157
981.25
981.337
981.419
981.496
981.567
981.633
981.694
981.749
981.798
981.84
981.876
981.904
981.925
981.938
981.943
981.938
981.924
981.9
981.867
981.822
981.768
981.703
981.629
981.543
981.448
981.344
981.231
981.11
980.983
980.849
980.711
980.569
980.425
980.28
980.136
979.994
979.856
979.723
979.597
979.48
979.372
979.276
979.193
979.123
979.068
979.028
979.005
978.998
979.01
979.038
979.084
979.148
979.23
979.328
979.442
979.573
979.719
979.879
980.052
980.236
980.432
980.637
980.852
981.073
981.3
981.532
981.768
982.005
982.244
982.482
982.72
982.955
983.187
983.414
983.637
983.853
984.063
984.265
984.459
984.645
984.822
984.989
985.147
985.294
985.431
985.557
985.673
985.778
985.873
985.956
986.03
986.092
986.143
986.184
986.215
986.236
986.246
986.246
986.237
986.217
986.187
986.148
986.098
986.039
985.97
985.888
985.798
985.697
985.581
985.451
985.317
985.165
984.982
984.801
984.623
984.37
984.089
983.913
983.639
983.136
982.912
982.833
982.135
981.646
981.826
981.449
981.147
981.635
1019.16
1018.85
1018.61
1018.73
1018.09
1017.5
1017.39
1016.94
1016.41
1016.1
1015.79
1015.37
1015.01
1014.72
1014.41
1014.08
1013.78
1013.5
1013.21
1012.93
1012.65
1012.37
1012.09
1011.81
1011.54
1011.26
1010.97
1010.68
1010.39
1010.09
1009.78
1009.47
1009.15
1008.81
1008.47
1008.12
1007.75
1007.37
1006.98
1006.57
1006.15
1005.71
1005.25
1004.78
1004.29
1003.79
1003.26
1002.71
1002.15
1001.57
1000.97
1000.35
999.709
999.053
998.38
997.691
996.987
996.269
995.539
994.798
994.047
993.289
992.525
991.757
990.987
990.218
989.45
988.687
987.93
987.182
986.444
985.718
985.005
984.308
983.628
982.967
982.324
981.702
981.102
980.523
979.967
979.434
978.924
978.437
977.973
977.533
977.115
976.721
976.348
975.997
975.668
975.36
975.071
974.803
974.553
974.321
974.107
973.911
973.73
973.565
973.415
973.279
973.158
973.05
972.956
972.875
972.806
972.75
972.706
972.675
972.655
972.647
972.651
972.666
972.693
972.732
972.781
972.841
972.911
972.992
973.083
973.183
973.292
973.409
973.535
973.668
973.809
973.956
974.109
974.268
974.432
974.601
974.773
974.95
975.129
975.312
975.497
975.684
975.872
976.062
976.253
976.445
976.637
976.829
977.021
977.213
977.404
977.594
977.783
977.97
978.156
978.34
978.521
978.7
978.876
979.049
979.218
979.384
979.547
979.705
979.859
980.008
980.152
980.292
980.427
980.557
980.682
980.801
980.916
981.025
981.129
981.227
981.321
981.409
981.492
981.57
981.642
981.709
981.771
981.826
981.876
981.918
981.955
981.983
982.005
982.018
982.022
982.017
982.003
981.978
981.944
981.898
981.842
981.775
981.697
981.609
981.51
981.401
981.284
981.158
981.025
980.885
980.74
980.591
980.441
980.288
980.137
979.988
979.843
979.703
979.57
979.446
979.333
979.231
979.142
979.067
979.008
978.964
978.938
978.928
978.937
978.964
979.009
979.073
979.154
979.253
979.369
979.501
979.649
979.812
979.988
980.176
980.375
980.584
980.803
981.029
981.261
981.497
981.738
981.98
982.224
982.467
982.709
982.949
983.185
983.417
983.644
983.865
984.079
984.285
984.483
984.672
984.853
985.023
985.184
985.334
985.473
985.602
985.72
985.828
985.924
986.01
986.085
986.149
986.202
986.245
986.278
986.3
986.312
986.314
986.307
986.289
986.262
986.225
986.179
986.123
986.058
985.983
985.896
985.8
985.696
985.576
985.443
985.31
985.159
984.97
984.796
984.64
984.387
984.109
983.991
983.763
983.288
983.128
983.15
982.729
982.4
982.591
982.771
982.788
1018.7
1018.49
1018.36
1018.16
1017.76
1017.61
1017.19
1016.73
1016.5
1016.18
1015.76
1015.43
1015.16
1014.84
1014.51
1014.21
1013.94
1013.65
1013.36
1013.08
1012.8
1012.53
1012.25
1011.97
1011.69
1011.41
1011.12
1010.84
1010.54
1010.24
1009.93
1009.62
1009.29
1008.95
1008.61
1008.25
1007.88
1007.5
1007.1
1006.69
1006.26
1005.82
1005.36
1004.88
1004.38
1003.87
1003.34
1002.78
1002.21
1001.62
1001
1000.37
999.72
999.051
998.363
997.659
996.939
996.205
995.458
994.699
993.931
993.155
992.373
991.588
990.801
990.015
989.231
988.453
987.682
986.92
986.17
985.433
984.711
984.006
983.32
982.654
982.008
981.384
980.782
980.204
979.65
979.119
978.613
978.13
977.672
977.237
976.826
976.438
976.072
975.729
975.406
975.105
974.823
974.561
974.318
974.092
973.884
973.693
973.517
973.357
973.212
973.081
972.963
972.859
972.769
972.692
972.627
972.574
972.534
972.506
972.49
972.486
972.493
972.512
972.543
972.585
972.639
972.703
972.778
972.864
972.959
973.064
973.178
973.3
973.431
973.569
973.715
973.867
974.026
974.19
974.359
974.533
974.711
974.893
975.078
975.266
975.456
975.649
975.843
976.038
976.234
976.43
976.627
976.824
977.021
977.217
977.412
977.607
977.8
977.991
978.181
978.368
978.553
978.736
978.916
979.092
979.265
979.434
979.599
979.76
979.917
980.069
980.216
980.358
980.496
980.627
980.754
980.876
980.992
981.103
981.208
981.308
981.403
981.492
981.576
981.655
981.728
981.796
981.857
981.913
981.963
982.006
982.042
982.071
982.093
982.105
982.109
982.103
982.088
982.062
982.026
981.979
981.92
981.85
981.769
981.677
981.574
981.46
981.338
981.206
981.067
980.92
980.769
980.612
980.454
980.294
980.135
979.978
979.826
979.678
979.539
979.408
979.288
979.18
979.086
979.005
978.942
978.894
978.864
978.852
978.859
978.884
978.929
978.992
979.073
979.173
979.29
979.424
979.575
979.74
979.919
980.111
980.315
980.528
980.751
980.982
981.219
981.461
981.707
981.954
982.203
982.452
982.7
982.944
983.186
983.423
983.654
983.88
984.098
984.308
984.51
984.704
984.887
985.061
985.225
985.378
985.521
985.653
985.774
985.883
985.982
986.07
986.147
986.214
986.269
986.314
986.349
986.374
986.388
986.393
986.388
986.374
986.35
986.317
986.275
986.223
986.163
986.094
986.015
985.925
985.829
985.725
985.605
985.474
985.35
985.204
985.02
984.871
984.739
984.495
984.273
984.215
984.007
983.679
983.656
983.649
983.47
983.54
983.744
984.015
1018.17
1018.2
1018.1
1017.75
1017.62
1017.43
1017
1016.75
1016.48
1016.11
1015.8
1015.54
1015.22
1014.91
1014.63
1014.35
1014.06
1013.78
1013.51
1013.24
1012.96
1012.68
1012.41
1012.14
1011.86
1011.57
1011.29
1011
1010.71
1010.4
1010.09
1009.78
1009.45
1009.11
1008.76
1008.4
1008.03
1007.65
1007.25
1006.83
1006.4
1005.95
1005.48
1005
1004.49
1003.97
1003.43
1002.86
1002.28
1001.68
1001.05
1000.4
999.739
999.054
998.35
997.628
996.89
996.137
995.37
994.591
993.802
993.006
992.204
991.398
990.591
989.785
988.983
988.187
987.399
986.622
985.858
985.108
984.375
983.661
982.967
982.295
981.645
981.018
980.416
979.838
979.285
978.758
978.256
977.779
977.326
976.898
976.494
976.113
975.755
975.419
975.105
974.811
974.537
974.282
974.046
973.827
973.626
973.44
973.27
973.115
972.975
972.848
972.735
972.635
972.549
972.475
972.414
972.365
972.328
972.304
972.292
972.291
972.303
972.326
972.361
972.408
972.466
972.535
972.615
972.705
972.805
972.916
973.035
973.164
973.3
973.445
973.596
973.755
973.92
974.091
974.267
974.447
974.632
974.82
975.011
975.206
975.403
975.602
975.802
976.003
976.205
976.408
976.61
976.813
977.016
977.217
977.418
977.618
977.816
978.012
978.206
978.399
978.588
978.775
978.959
979.139
979.316
979.489
979.657
979.822
979.982
980.137
980.287
980.432
980.572
980.707
980.836
980.959
981.078
981.19
981.298
981.399
981.495
981.586
981.671
981.75
981.824
981.892
981.954
982.01
982.059
982.102
982.138
982.166
982.187
982.199
982.202
982.195
982.178
982.15
982.112
982.062
982.001
981.928
981.843
981.746
981.639
981.52
981.392
981.253
981.108
980.954
980.795
980.631
980.466
980.298
980.131
979.966
979.806
979.651
979.504
979.366
979.24
979.125
979.026
978.94
978.872
978.82
978.787
978.772
978.777
978.801
978.844
978.907
978.989
979.09
979.209
979.345
979.498
979.666
979.849
980.045
980.253
980.471
980.699
980.934
981.177
981.424
981.675
981.928
982.183
982.437
982.691
982.941
983.188
983.43
983.666
983.897
984.119
984.334
984.541
984.738
984.926
985.103
985.271
985.427
985.573
985.708
985.832
985.945
986.046
986.137
986.216
986.285
986.344
986.391
986.429
986.456
986.474
986.482
986.48
986.469
986.449
986.42
986.383
986.338
986.283
986.22
986.151
986.072
985.982
985.889
985.792
985.675
985.551
985.445
985.314
985.142
985.029
984.936
984.724
984.563
984.569
984.453
984.265
984.325
984.467
984.502
984.668
985.126
1017.88
1017.87
1017.76
1017.61
1017.46
1017.14
1016.94
1016.74
1016.38
1016.1
1015.87
1015.57
1015.27
1015.01
1014.74
1014.46
1014.18
1013.92
1013.65
1013.38
1013.11
1012.84
1012.57
1012.3
1012.02
1011.74
1011.46
1011.17
1010.88
1010.58
1010.27
1009.95
1009.62
1009.28
1008.93
1008.57
1008.2
1007.81
1007.4
1006.99
1006.55
1006.09
1005.62
1005.13
1004.62
1004.09
1003.53
1002.96
1002.37
1001.75
1001.11
1000.45
999.764
999.062
998.339
997.598
996.84
996.065
995.276
994.475
993.663
992.843
992.017
991.188
990.358
989.53
988.706
987.89
987.083
986.288
985.507
984.743
983.998
983.274
982.571
981.892
981.237
980.608
980.005
979.427
978.877
978.353
977.855
977.384
976.938
976.518
976.122
975.749
975.4
975.073
974.767
974.482
974.217
973.97
973.741
973.53
973.335
973.156
972.992
972.842
972.707
972.585
972.477
972.382
972.299
972.229
972.171
972.126
972.093
972.072
972.063
972.067
972.083
972.11
972.15
972.201
972.263
972.338
972.423
972.518
972.624
972.74
972.866
973.001
973.144
973.295
973.454
973.619
973.792
973.97
974.153
974.341
974.533
974.73
974.929
975.131
975.336
975.542
975.75
975.958
976.168
976.378
976.588
976.798
977.007
977.215
977.422
977.627
977.831
978.033
978.233
978.43
978.625
978.817
979.005
979.19
979.371
979.548
979.721
979.89
980.053
980.212
980.365
980.513
980.656
980.793
980.925
981.051
981.172
981.286
981.395
981.498
981.596
981.687
981.773
981.853
981.927
981.995
982.057
982.113
982.162
982.205
982.239
982.267
982.286
982.296
982.298
982.289
982.27
982.24
982.2
982.147
982.082
982.005
981.916
981.815
981.702
981.578
981.444
981.3
981.147
980.987
980.821
980.649
980.476
980.3
980.126
979.953
979.785
979.623
979.469
979.324
979.191
979.07
978.965
978.875
978.802
978.746
978.709
978.692
978.694
978.716
978.759
978.821
978.904
979.005
979.126
979.264
979.42
979.591
979.778
979.978
980.19
980.413
980.646
980.887
981.134
981.387
981.644
981.904
982.164
982.424
982.683
982.939
983.191
983.439
983.681
983.916
984.143
984.363
984.574
984.776
984.968
985.149
985.32
985.48
985.63
985.768
985.895
986.01
986.115
986.209
986.291
986.363
986.424
986.474
986.515
986.546
986.567
986.578
986.581
986.573
986.558
986.535
986.503
986.464
986.417
986.362
986.299
986.232
986.157
986.072
985.987
985.9
985.792
985.686
985.605
985.493
985.353
985.287
985.229
985.082
985.016
985.06
985.035
985.041
985.192
985.383
985.641
986.063
1017.66
1017.59
1017.51
1017.45
1017.25
1017.03
1016.88
1016.61
1016.36
1016.14
1015.87
1015.59
1015.35
1015.09
1014.82
1014.56
1014.3
1014.04
1013.78
1013.52
1013.26
1013
1012.73
1012.46
1012.19
1011.92
1011.63
1011.35
1011.06
1010.75
1010.45
1010.13
1009.8
1009.46
1009.11
1008.75
1008.37
1007.98
1007.58
1007.15
1006.71
1006.25
1005.78
1005.28
1004.76
1004.22
1003.65
1003.07
1002.46
1001.83
1001.17
1000.5
999.797
999.074
998.332
997.569
996.788
995.99
995.176
994.35
993.512
992.666
991.814
990.958
990.103
989.249
988.401
987.561
986.733
985.918
985.12
984.339
983.58
982.844
982.132
981.445
980.785
980.153
979.549
978.972
978.424
977.905
977.413
976.948
976.51
976.098
975.712
975.349
975.01
974.693
974.397
974.121
973.865
973.628
973.407
973.204
973.016
972.844
972.686
972.543
972.413
972.296
972.192
972.101
972.023
971.957
971.902
971.861
971.831
971.814
971.809
971.816
971.836
971.868
971.911
971.967
972.034
972.114
972.204
972.305
972.417
972.54
972.672
972.813
972.964
973.122
973.288
973.462
973.642
973.828
974.02
974.217
974.418
974.623
974.832
975.043
975.256
975.471
975.687
975.905
976.123
976.341
976.559
976.777
976.993
977.209
977.423
977.636
977.846
978.055
978.26
978.464
978.664
978.861
979.055
979.245
979.431
979.612
979.789
979.962
980.129
980.292
980.449
980.6
980.746
980.887
981.021
981.15
981.272
981.389
981.499
981.604
981.702
981.795
981.882
981.963
982.037
982.105
982.167
982.222
982.27
982.311
982.345
982.371
982.388
982.397
982.396
982.385
982.363
982.331
982.286
982.23
982.162
982.081
981.988
981.882
981.764
981.635
981.495
981.344
981.185
981.018
980.845
980.666
980.485
980.302
980.12
979.94
979.765
979.595
979.434
979.282
979.143
979.016
978.906
978.81
978.733
978.673
978.633
978.613
978.613
978.634
978.675
978.737
978.82
978.923
979.045
979.185
979.344
979.518
979.708
979.912
980.129
980.357
980.595
980.841
981.094
981.352
981.615
981.88
982.147
982.412
982.677
982.939
983.197
983.45
983.697
983.937
984.17
984.394
984.61
984.816
985.012
985.198
985.373
985.537
985.69
985.831
985.961
986.08
986.188
986.285
986.371
986.445
986.51
986.563
986.607
986.642
986.666
986.682
986.689
986.686
986.676
986.659
986.633
986.6
986.561
986.515
986.462
986.404
986.344
986.275
986.198
986.128
986.057
985.964
985.883
985.833
985.751
985.653
985.639
985.631
985.564
985.582
985.697
985.783
985.909
986.165
986.481
986.901
1017.43
1017.41
1017.35
1017.23
1017.09
1016.97
1016.76
1016.53
1016.35
1016.12
1015.86
1015.64
1015.41
1015.15
1014.9
1014.66
1014.41
1014.16
1013.91
1013.66
1013.4
1013.15
1012.89
1012.63
1012.36
1012.09
1011.81
1011.53
1011.24
1010.94
1010.63
1010.31
1009.99
1009.65
1009.3
1008.94
1008.56
1008.17
1007.76
1007.33
1006.89
1006.43
1005.94
1005.44
1004.91
1004.36
1003.79
1003.19
1002.57
1001.92
1001.25
1000.55
999.835
999.092
998.328
997.542
996.736
995.912
995.071
994.216
993.35
992.475
991.593
990.709
989.824
988.943
988.068
987.202
986.35
985.512
984.693
983.896
983.12
982.371
981.649
980.954
980.289
979.654
979.049
978.474
977.929
977.415
976.93
976.473
976.044
975.642
975.266
974.914
974.586
974.281
973.996
973.731
973.485
973.258
973.047
972.852
972.673
972.508
972.357
972.22
972.096
971.984
971.885
971.798
971.724
971.661
971.611
971.573
971.547
971.533
971.531
971.542
971.565
971.601
971.649
971.709
971.781
971.866
971.961
972.068
972.187
972.315
972.454
972.603
972.761
972.927
973.102
973.284
973.473
973.668
973.869
974.076
974.287
974.502
974.72
974.941
975.164
975.389
975.615
975.843
976.07
976.298
976.525
976.752
976.977
977.201
977.423
977.643
977.861
978.077
978.289
978.499
978.706
978.909
979.108
979.303
979.494
979.681
979.862
980.039
980.211
980.377
980.538
980.693
980.842
980.985
981.122
981.253
981.378
981.496
981.608
981.714
981.814
981.908
981.995
982.076
982.15
982.218
982.28
982.334
982.381
982.421
982.453
982.476