# vtk DataFile Version 2.0
LBE mesh
ASCII
DATASET STRUCTURED_POINTS
DIMENSIONS 300 100 1
ASPECT_RATIO 1 1 1
ORIGIN 0 0 0
POINT_DATA 30000
SCALARS rho double 1
LOOKUP_TABLE default
1046.63
1014.88
1014.14
1020.59
1018.73
1014.79
1014.57
1015.05
1014.24
1013.41
1013.21
1013
1012.6
1012.25
1012.01
1011.75
1011.47
1011.2
1010.96
1010.7
1010.44
1010.18
1009.92
1009.66
1009.39
1009.11
1008.83
1008.54
1008.24
1007.94
1007.62
1007.3
1006.96
1006.61
1006.25
1005.88
1005.5
1005.1
1004.69
1004.26
1003.82
1003.36
1002.88
1002.39
1001.88
1001.35
1000.81
1000.25
999.67
999.072
998.457
997.824
997.173
996.505
995.822
995.122
994.408
993.679
992.938
992.185
991.422
990.65
989.872
989.087
988.3
987.511
986.722
985.935
985.153
984.377
983.609
982.852
982.106
981.375
980.659
979.96
979.28
978.619
977.98
977.363
976.768
976.197
975.65
975.127
974.628
974.155
973.705
973.281
972.881
972.505
972.152
971.822
971.515
971.23
970.966
970.722
970.499
970.295
970.109
969.942
969.792
969.659
969.542
969.44
969.354
969.281
969.223
969.177
969.145
969.125
969.116
969.119
969.133
969.158
969.192
969.237
969.291
969.354
969.427
969.508
969.598
969.695
969.801
969.914
970.035
970.163
970.299
970.441
970.591
970.748
970.912
971.083
971.26
971.444
971.636
971.834
972.039
972.252
972.471
972.698
972.933
973.175
973.424
973.682
973.947
974.219
974.5
974.789
975.086
975.391
975.703
976.024
976.351
976.685
977.026
977.373
977.727
978.085
978.448
978.815
979.186
979.559
979.934
980.31
980.685
981.06
981.434
981.805
982.172
982.535
982.892
983.243
983.587
983.924
984.251
984.569
984.877
985.174
985.459
985.732
985.993
986.242
986.476
986.698
986.905
987.098
987.278
987.443
987.594
987.731
987.853
987.962
988.055
988.135
988.2
988.251
988.288
988.31
988.316
988.308
988.284
988.244
988.188
988.114
988.024
987.915
987.789
987.644
987.48
987.297
987.095
986.874
986.634
986.377
986.103
985.812
985.506
985.185
984.853
984.51
984.158
983.799
983.437
983.073
982.71
982.35
981.997
981.652
981.318
980.999
980.697
980.414
980.152
979.913
979.699
979.511
979.35
979.217
979.113
979.037
978.989
978.97
978.977
979.01
979.067
979.148
979.249
979.37
979.507
979.658
979.821
979.992
980.171
980.353
980.537
980.719
980.899
981.072
981.238
981.393
981.537
981.667
981.783
981.882
981.965
982.029
982.075
982.101
982.108
982.095
982.063
982.012
981.941
981.851
981.742
981.616
981.471
981.309
981.128
980.93
980.715
980.479
980.223
979.955
979.661
979.325
978.984
978.641
978.191
977.665
977.293
976.801
975.742
975.023
975.149
973.203
969.457
971.583
972.466
949.102
1029.5
1025.93
1021.82
1016.59
1016.74
1016.87
1015.67
1014.47
1014.2
1013.92
1013.4
1012.97
1012.7
1012.4
1012.08
1011.79
1011.53
1011.26
1010.99
1010.73
1010.47
1010.21
1009.94
1009.67
1009.4
1009.12
1008.83
1008.54
1008.24
1007.93
1007.61
1007.29
1006.95
1006.6
1006.24
1005.86
1005.47
1005.07
1004.66
1004.23
1003.78
1003.32
1002.85
1002.35
1001.84
1001.31
1000.77
1000.21
999.625
999.027
998.41
997.777
997.126
996.458
995.774
995.074
994.36
993.633
992.892
992.141
991.379
990.609
989.832
989.05
988.265
987.478
986.692
985.908
985.129
984.356
983.592
982.838
982.096
981.368
980.655
979.96
979.283
978.626
977.99
977.376
976.785
976.217
975.672
975.152
974.657
974.186
973.739
973.317
972.918
972.544
972.193
971.865
971.559
971.275
971.012
970.77
970.547
970.344
970.16
969.993
969.844
969.711
969.594
969.493
969.406
969.334
969.276
969.231
969.198
969.178
969.17
969.172
969.186
969.211
969.245
969.29
969.343
969.407
969.479
969.56
969.649
969.746
969.851
969.964
970.084
970.212
970.346
970.489
970.638
970.794
970.957
971.126
971.303
971.486
971.676
971.874
972.078
972.289
972.508
972.733
972.966
973.207
973.455
973.711
973.975
974.246
974.525
974.812
975.108
975.411
975.722
976.04
976.365
976.698
977.037
977.383
977.734
978.091
978.453
978.818
979.187
979.559
979.932
980.306
980.681
981.055
981.427
981.797
982.163
982.525
982.881
983.232
983.575
983.911
984.238
984.556
984.863
985.16
985.445
985.719
985.98
986.228
986.463
986.684
986.892
987.086
987.265
987.431
987.582
987.719
987.842
987.951
988.044
988.124
988.19
988.241
988.278
988.3
988.307
988.299
988.276
988.237
988.181
988.109
988.02
987.913
987.788
987.646
987.484
987.303
987.104
986.886
986.649
986.395
986.124
985.835
985.532
985.214
984.885
984.544
984.194
983.837
983.476
983.113
982.751
982.391
982.038
981.692
981.359
981.038
980.735
980.449
980.185
979.943
979.726
979.535
979.371
979.234
979.126
979.047
978.995
978.972
978.975
979.004
979.058
979.135
979.233
979.35
979.484
979.632
979.792
979.961
980.138
980.318
980.5
980.682
980.86
981.033
981.198
981.353
981.497
981.627
981.743
981.843
981.926
981.991
982.037
982.064
982.072
982.06
982.028
981.977
981.906
981.817
981.708
981.581
981.435
981.271
981.09
980.889
980.67
980.434
980.177
979.895
979.597
979.278
978.913
978.515
978.125
977.66
977.052
976.493
976.006
974.995
973.706
973.232
972.13
968.069
964.391
962.478
1021.39
1026.18
1021.49
1017.16
1017.37
1017.06
1015.65
1014.67
1014.44
1014.06
1013.5
1013.09
1012.8
1012.49
1012.16
1011.86
1011.59
1011.32
1011.04
1010.78
1010.51
1010.24
1009.97
1009.7
1009.42
1009.14
1008.85
1008.56
1008.25
1007.94
1007.62
1007.29
1006.95
1006.6
1006.23
1005.86
1005.47
1005.06
1004.65
1004.22
1003.77
1003.31
1002.83
1002.33
1001.82
1001.29
1000.74
1000.18
999.597
998.997
998.379
997.744
997.092
996.423
995.738
995.037
994.322
993.594
992.852
992.1
991.338
990.568
989.79
989.008
988.223
987.436
986.651
985.868
985.09
984.318
983.555
982.803
982.062
981.336
980.626
979.933
979.259
978.605
977.971
977.36
976.771
976.206
975.665
975.148
974.655
974.187
973.743
973.323
972.928
972.556
972.207
971.881
971.577
971.296
971.034
970.794
970.573
970.371
970.188
970.023
969.874
969.743
969.627
969.527
969.441
969.37
969.312
969.268
969.235
969.216
969.208
969.211
969.225
969.25
969.285
969.329
969.383
969.447
969.519
969.599
969.688
969.785
969.89
970.003
970.123
970.25
970.384
970.526
970.674
970.83
970.992
971.161
971.337
971.519
971.708
971.904
972.107
972.317
972.535
972.759
972.991
973.23
973.477
973.731
973.993
974.263
974.541
974.827
975.121
975.422
975.732
976.049
976.373
976.704
977.042
977.386
977.736
978.092
978.452
978.817
979.185
979.556
979.929
980.302
980.677
981.05
981.422
981.791
982.158
982.519
982.876
983.227
983.57
983.906
984.233
984.551
984.859
985.156
985.442
985.716
985.978
986.226
986.461
986.683
986.892
987.086
987.266
987.432
987.583
987.72
987.843
987.952
988.046
988.126
988.192
988.244
988.281
988.303
988.311
988.304
988.282
988.244
988.19
988.12
988.032
987.927
987.805
987.664
987.504
987.327
987.129
986.914
986.68
986.428
986.158
985.872
985.57
985.254
984.924
984.584
984.234
983.877
983.515
983.151
982.787
982.425
982.069
981.72
981.383
981.059
980.752
980.462
980.194
979.948
979.727
979.531
979.363
979.223
979.11
979.027
978.972
978.946
978.946
978.973
979.024
979.099
979.196
979.311
979.444
979.592
979.751
979.921
980.097
980.278
980.461
980.643
980.823
980.997
981.163
981.32
981.465
981.597
981.715
981.816
981.901
981.967
982.014
982.043
982.051
982.04
982.009
981.958
981.888
981.798
981.689
981.561
981.414
981.249
981.067
980.865
980.643
980.405
980.149
979.864
979.555
979.242
978.889
978.46
978.05
977.669
977.047
976.3
975.984
975.363
973.452
972.676
973.611
969.437
964.013
968.194
1021.11
1019.82
1019.27
1020.43
1017.89
1015.77
1015.7
1015.59
1014.65
1013.91
1013.65
1013.35
1012.91
1012.54
1012.26
1011.97
1011.67
1011.38
1011.11
1010.84
1010.57
1010.29
1010.02
1009.75
1009.46
1009.18
1008.89
1008.59
1008.28
1007.97
1007.65
1007.31
1006.97
1006.62
1006.25
1005.87
1005.48
1005.08
1004.66
1004.22
1003.77
1003.31
1002.83
1002.33
1001.82
1001.29
1000.74
1000.17
999.586
998.983
998.363
997.725
997.07
996.398
995.71
995.006
994.288
993.557
992.812
992.057
991.293
990.519
989.739
988.954
988.167
987.379
986.591
985.806
985.027
984.254
983.49
982.737
981.997
981.271
980.562
979.87
979.197
978.545
977.914
977.305
976.719
976.156
975.618
975.104
974.615
974.15
973.709
973.293
972.901
972.533
972.187
971.864
971.564
971.284
971.026
970.788
970.57
970.371
970.19
970.026
969.88
969.75
969.636
969.537
969.453
969.383
969.326
969.283
969.252
969.233
969.226
969.23
969.245
969.27
969.306
969.351
969.406
969.469
969.542
969.623
969.712
969.809
969.915
970.027
970.147
970.275
970.409
970.55
970.699
970.853
971.015
971.184
971.359
971.541
971.729
971.925
972.127
972.336
972.552
972.775
973.006
973.244
973.49
973.743
974.004
974.272
974.549
974.834
975.126
975.427
975.735
976.051
976.374
976.704
977.042
977.385
977.735
978.09
978.45
978.814
979.182
979.553
979.926
980.3
980.674
981.048
981.42
981.79
982.157
982.519
982.877
983.228
983.573
983.909
984.238
984.556
984.865
985.163
985.45
985.724
985.987
986.236
986.472
986.695
986.904
987.098
987.279
987.445
987.597
987.734
987.857
987.966
988.06
988.141
988.207
988.259
988.297
988.32
988.328
988.323
988.302
988.265
988.213
988.144
988.059
987.956
987.836
987.698
987.541
987.365
987.17
986.956
986.724
986.473
986.205
985.919
985.617
985.3
984.97
984.628
984.276
983.916
983.55
983.182
982.813
982.446
982.085
981.732
981.389
981.059
980.746
980.451
980.176
979.925
979.698
979.498
979.325
979.181
979.065
978.979
978.921
978.892
978.891
978.916
978.967
979.042
979.138
979.255
979.389
979.537
979.699
979.87
980.049
980.233
980.419
980.604
980.786
980.963
981.133
981.292
981.441
981.575
981.696
981.8
981.886
981.955
982.004
982.034
982.044
982.034
982.004
981.953
981.883
981.793
981.683
981.555
981.408
981.242
981.058
980.856
980.636
980.393
980.133
979.859
979.553
979.212
978.874
978.51
978.036
977.556
977.183
976.572
975.642
975.198
974.833
973.001
971.46
971.708
971
969.354
1021.1
1018.9
1018.81
1018.68
1017.18
1016.74
1016.15
1015.27
1014.63
1014.3
1013.89
1013.41
1013.02
1012.72
1012.4
1012.07
1011.77
1011.49
1011.21
1010.93
1010.65
1010.37
1010.1
1009.82
1009.53
1009.24
1008.95
1008.65
1008.34
1008.02
1007.7
1007.36
1007.02
1006.66
1006.29
1005.91
1005.52
1005.11
1004.69
1004.26
1003.8
1003.34
1002.85
1002.35
1001.84
1001.3
1000.75
1000.18
999.59
998.984
998.359
997.717
997.057
996.381
995.688
994.979
994.256
993.519
992.769
992.008
991.238
990.459
989.673
988.883
988.091
987.297
986.505
985.716
984.932
984.156
983.389
982.634
981.892
981.165
980.455
979.763
979.091
978.439
977.81
977.203
976.619
976.06
975.525
975.015
974.529
974.068
973.632
973.22
972.833
972.468
972.127
971.808
971.512
971.236
970.982
970.747
970.532
970.336
970.159
969.998
969.854
969.727
969.615
969.518
969.436
969.368
969.313
969.271
969.242
969.224
969.219
969.224
969.24
969.267
969.303
969.349
969.405
969.47
969.543
969.625
969.716
969.814
969.919
970.033
970.154
970.282
970.416
970.558
970.707
970.862
971.024
971.192
971.368
971.549
971.738
971.933
972.135
972.343
972.559
972.782
973.012
973.25
973.494
973.747
974.007
974.275
974.551
974.835
975.127
975.427
975.734
976.049
976.372
976.702
977.039
977.383
977.733
978.088
978.448
978.813
979.181
979.553
979.926
980.301
980.676
981.051
981.424
981.795
982.163
982.527
982.885
983.238
983.584
983.922
984.251
984.571
984.881
985.18
985.468
985.744
986.007
986.258
986.495
986.718
986.927
987.123
987.304
987.47
987.623
987.76
987.884
987.993
988.088
988.168
988.234
988.287
988.325
988.349
988.359
988.354
988.334
988.299
988.249
988.182
988.099
987.999
987.88
987.744
987.589
987.415
987.222
987.01
986.778
986.528
986.259
985.972
985.669
985.35
985.016
984.671
984.314
983.949
983.578
983.204
982.828
982.455
982.086
981.725
981.374
981.037
980.716
980.414
980.133
979.876
979.643
979.438
979.26
979.112
978.992
978.903
978.844
978.813
978.812
978.837
978.889
978.965
979.063
979.182
979.318
979.47
979.635
979.81
979.994
980.182
980.372
980.561
980.748
980.93
981.104
981.268
981.421
981.56
981.684
981.792
981.881
981.953
982.005
982.037
982.048
982.039
982.01
981.96
981.89
981.801
981.691
981.562
981.416
981.25
981.065
980.862
980.644
980.405
980.142
979.866
979.576
979.242
978.878
978.541
978.147
977.605
977.159
976.833
976.026
975.093
975.078
974.4
972.326
972.251
972.597
971.123
1019.01
1019.01
1018.58
1017.08
1017.19
1017.01
1015.82
1015.16
1014.97
1014.52
1013.91
1013.52
1013.24
1012.88
1012.51
1012.2
1011.92
1011.62
1011.33
1011.04
1010.76
1010.48
1010.2
1009.92
1009.63
1009.34
1009.04
1008.73
1008.42
1008.1
1007.78
1007.44
1007.09
1006.73
1006.36
1005.98
1005.58
1005.17
1004.75
1004.31
1003.86
1003.39
1002.9
1002.4
1001.88
1001.34
1000.78
1000.21
999.612
999
998.369
997.721
997.055
996.371
995.671
994.955
994.224
993.478
992.72
991.951
991.172
990.384
989.59
988.792
987.991
987.189
986.39
985.593
984.803
984.021
983.25
982.49
981.744
981.014
980.302
979.609
978.936
978.285
977.656
977.051
976.47
975.913
975.382
974.876
974.394
973.939
973.507
973.101
972.718
972.359
972.023
971.71
971.418
971.148
970.898
970.668
970.457
970.265
970.091
969.934
969.794
969.67
969.561
969.467
969.387
969.321
969.268
969.228
969.201
969.185
969.181
969.188
969.206
969.234
969.272
969.32
969.377
969.444
969.518
969.602
969.694
969.793
969.901
970.015
970.138
970.267
970.403
970.547
970.696
970.852
971.015
971.185
971.361
971.544
971.733
971.929
972.131
972.34
972.556
972.78
973.01
973.247
973.492
973.745
974.005
974.273
974.549
974.833
975.125
975.425
975.733
976.048
976.371
976.702
977.039
977.383
977.734
978.09
978.451
978.817
979.186
979.558
979.933
980.309
980.685
981.061
981.436
981.809
982.178
982.543
982.904
983.258
983.605
983.944
984.275
984.597
984.908
985.208
985.498
985.775
986.039
986.291
986.529
986.753
986.963
987.159
987.341
987.508
987.66
987.798
987.922
988.031
988.126
988.207
988.274
988.327
988.366
988.39
988.401
988.397
988.379
988.345
988.296
988.232
988.15
988.052
987.935
987.801
987.648
987.475
987.283
987.072
986.84
986.589
986.318
986.03
985.723
985.4
985.062
984.711
984.348
983.976
983.597
983.214
982.83
982.447
982.069
981.699
981.339
980.994
980.664
980.354
980.066
979.801
979.563
979.352
979.169
979.017
978.895
978.804
978.743
978.712
978.711
978.737
978.791
978.869
978.971
979.093
979.234
979.391
979.56
979.741
979.93
980.124
980.32
980.516
980.709
980.897
981.077
981.247
981.404
981.548
981.677
981.789
981.883
981.958
982.013
982.047
982.061
982.054
982.026
981.978
981.909
981.819
981.711
981.583
981.436
981.271
981.089
980.887
980.667
980.433
980.18
979.898
979.605
979.31
978.959
978.563
978.229
977.852
977.258
976.781
976.556
975.801
974.807
974.74
974.509
973.429
972.932
973.36
1017.96
1018.33
1017.84
1017.17
1016.96
1016.2
1015.81
1015.53
1014.95
1014.39
1014.08
1013.76
1013.35
1012.97
1012.67
1012.38
1012.06
1011.75
1011.47
1011.19
1010.9
1010.61
1010.33
1010.04
1009.75
1009.46
1009.16
1008.85
1008.54
1008.21
1007.88
1007.54
1007.19
1006.83
1006.46
1006.08
1005.68
1005.26
1004.84
1004.4
1003.94
1003.46
1002.97
1002.47
1001.94
1001.39
1000.83
1000.25
999.65
999.031
998.393
997.736
997.061
996.368
995.658
994.932
994.19
993.434
992.665
991.884
991.093
990.294
989.489
988.679
987.867
987.055
986.244
985.438
984.639
983.849
983.069
982.303
981.552
980.817
980.101
979.406
978.731
978.08
977.452
976.848
976.269
975.716
975.188
974.686
974.21
973.76
973.334
972.933
972.557
972.204
971.874
971.567
971.282
971.017
970.773
970.549
970.343
970.156
969.986
969.834
969.698
969.577
969.471
969.38
969.303
969.239
969.189
969.151
969.126
969.112
969.11
969.119
969.139
969.169
969.209
969.259
969.318
969.386
969.463
969.549
969.643
969.745
969.854
969.972
970.096
970.228
970.367
970.512
970.664
970.823
970.988
971.16
971.339
971.523
971.714
971.912
972.116
972.327
972.545
972.769
973.001
973.24
973.486
973.74
974.001
974.27
974.548
974.833
975.126
975.426
975.735
976.052
976.376
976.707
977.046
977.391
977.743
978.1
978.463
978.83
979.2
979.574
979.95
980.327
980.706
981.083
981.459
981.833
982.204
982.571
982.933
983.288
983.637
983.978
984.31
984.633
984.946
985.248
985.538
985.816
986.082
986.334
986.573
986.798
987.009
987.206
987.388
987.556
987.709
987.848
987.971
988.081
988.176
988.257
988.324
988.377
988.416
988.442
988.453
988.45
988.432
988.4
988.353
988.29
988.21
988.113
987.998
987.865
987.713
987.542
987.35
987.138
986.905
986.652
986.379
986.087
985.776
985.448
985.103
984.745
984.374
983.993
983.605
983.212
982.817
982.424
982.036
981.655
981.285
980.929
980.591
980.272
979.976
979.704
979.459
979.243
979.056
978.901
978.776
978.683
978.622
978.591
978.591
978.619
978.676
978.758
978.864
978.991
979.137
979.3
979.476
979.664
979.859
980.06
980.264
980.467
980.667
980.862
981.048
981.225
981.39
981.54
981.674
981.791
981.889
981.968
982.027
982.065
982.082
982.077
982.052
982.005
981.937
981.849
981.742
981.615
981.47
981.306
981.125
980.928
980.712
980.477
980.233
979.968
979.671
979.373
979.075
978.703
978.303
978.002
977.607
976.992
976.643
976.439
975.645
975.057
975.125
974.673
974.313
974.741
1017.68
1017.36
1017.11
1017.22
1016.56
1015.96
1015.84
1015.39
1014.85
1014.53
1014.22
1013.8
1013.43
1013.14
1012.83
1012.5
1012.2
1011.92
1011.63
1011.33
1011.05
1010.76
1010.48
1010.19
1009.9
1009.6
1009.3
1008.99
1008.67
1008.35
1008.02
1007.68
1007.32
1006.96
1006.59
1006.2
1005.8
1005.38
1004.95
1004.51
1004.04
1003.56
1003.07
1002.56
1002.02
1001.47
1000.9
1000.31
999.706
999.078
998.43
997.763
997.077
996.373
995.651
994.912
994.157
993.387
992.604
991.809
991.004
990.19
989.37
988.545
987.719
986.893
986.07
985.251
984.44
983.639
982.85
982.075
981.316
980.576
979.855
979.156
978.479
977.826
977.198
976.596
976.019
975.469
974.946
974.448
973.978
973.534
973.115
972.721
972.351
972.005
971.683
971.383
971.104
970.846
970.609
970.391
970.191
970.009
969.844
969.697
969.564
969.448
969.345
969.258
969.183
969.123
969.075
969.04
969.016
969.005
969.005
969.016
969.037
969.069
969.112
969.164
969.225
969.296
969.375
969.463
969.56
969.665
969.778
969.899
970.026
970.162
970.304
970.453
970.609
970.771
970.94
971.116
971.298
971.487
971.681
971.883
972.09
972.304
972.525
972.753
972.987
973.229
973.478
973.735
973.999
974.27
974.55
974.837
975.132
975.435
975.746
976.064
976.39
976.724
977.064
977.411
977.765
978.123
978.487
978.856
979.228
979.604
979.981
980.36
980.74
981.119
981.496
981.872
982.244
982.612
982.975
983.332
983.681
984.023
984.357
984.681
984.995
985.297
985.589
985.868
986.134
986.388
986.627
986.852
987.064
987.261
987.444
987.612
987.766
987.904
988.029
988.138
988.234
988.315
988.382
988.436
988.475
988.501
988.513
988.51
988.493
988.462
988.415
988.354
988.275
988.179
988.065
987.933
987.781
987.61
987.418
987.204
986.97
986.714
986.438
986.141
985.824
985.489
985.137
984.77
984.39
983.999
983.6
983.196
982.79
982.385
981.985
981.593
981.213
980.847
980.498
980.171
979.866
979.588
979.337
979.115
978.924
978.766
978.639
978.545
978.483
978.454
978.455
978.487
978.546
978.633
978.744
978.877
979.029
979.199
979.383
979.578
979.781
979.99
980.202
980.413
980.622
980.824
981.019
981.203
981.375
981.532
981.672
981.795
981.9
981.984
982.047
982.089
982.109
982.107
982.084
982.04
981.974
981.889
981.783
981.659
981.516
981.356
981.178
980.984
980.776
980.547
980.302
980.052
979.782
979.472
979.173
978.889
978.509
978.102
977.848
977.488
976.889
976.593
976.484
975.953
975.521
975.615
975.725
975.711
1017.22
1017
1016.86
1016.64
1016.23
1016.07
1015.64
1015.17
1014.94
1014.62
1014.19
1013.86
1013.59
1013.27
1012.93
1012.64
1012.36
1012.07
1011.77
1011.49
1011.21
1010.92
1010.64
1010.35
1010.06
1009.76
1009.46
1009.15
1008.83
1008.51
1008.17
1007.83
1007.48
1007.11
1006.73
1006.34
1005.94
1005.52
1005.09
1004.64
1004.17
1003.69
1003.19
1002.67
1002.13
1001.57
1000.99
1000.4
999.777
999.139
998.48
997.801
997.103
996.385
995.649
994.895
994.124
993.338
992.538
991.726
990.903
990.072
989.234
988.393
987.549
986.707
985.867
985.034
984.208
983.394
982.593
981.807
981.04
980.291
979.564
978.86
978.181
977.526
976.898
976.297
975.722
975.176
974.657
974.165
973.701
973.263
972.851
972.465
972.103
971.766
971.451
971.159
970.888
970.638
970.408
970.196
970.003
969.827
969.668
969.525
969.398
969.285
969.187
969.102
969.031
968.973
968.927
968.894
968.873
968.863
968.865
968.878
968.901
968.935
968.98
969.034
969.098
969.171
969.253
969.344
969.445
969.553
969.67
969.795
969.927
970.067
970.214
970.368
970.529
970.697
970.871
971.052
971.24
971.434
971.634
971.841
972.053
972.273
972.499
972.732
972.971
973.218
973.471
973.732
974
974.276
974.559
974.85
975.149
975.455
975.769
976.09
976.419
976.755
977.098
977.447
977.803
978.164
978.53
978.9
979.274
979.651
980.03
980.41
980.791
981.171
981.549
981.926
982.299
982.667
983.031
983.388
983.739
984.081
984.415
984.739
985.054
985.357
985.648
985.928
986.194
986.448
986.688
986.914
987.125
987.323
987.506
987.674
987.828
987.967
988.091
988.201
988.297
988.378
988.445
988.499
988.539
988.564
988.576
988.574
988.558
988.527
988.481
988.419
988.341
988.245
988.132
988
987.848
987.675
987.482
987.267
987.03
986.771
986.49
986.187
985.864
985.521
985.161
984.784
984.394
983.992
983.582
983.166
982.748
982.331
981.92
981.516
981.124
980.748
980.39
980.054
979.741
979.456
979.199
978.972
978.778
978.616
978.487
978.393
978.331
978.303
978.307
978.341
978.405
978.496
978.613
978.753
978.912
979.089
979.281
979.484
979.696
979.914
980.135
980.355
980.572
980.784
980.987
981.18
981.359
981.524
981.672
981.802
981.912
982.001
982.07
982.116
982.14
982.143
982.123
982.082
982.02
981.937
981.835
981.714
981.575
981.419
981.246
981.056
980.854
980.638
980.401
980.15
979.902
979.629
979.315
979.03
978.759
978.377
978.012
977.803
977.452
976.984
976.813
976.669
976.375
976.34
976.472
976.716
1016.69
1016.71
1016.59
1016.23
1016.09
1015.89
1015.45
1015.19
1014.92
1014.55
1014.24
1013.97
1013.65
1013.33
1013.05
1012.78
1012.49
1012.2
1011.92
1011.65
1011.36
1011.08
1010.8
1010.51
1010.22
1009.93
1009.63
1009.32
1009
1008.68
1008.34
1008
1007.64
1007.28
1006.9
1006.51
1006.1
1005.68
1005.24
1004.79
1004.32
1003.83
1003.32
1002.8
1002.25
1001.69
1001.1
1000.49
999.864
999.214
998.543
997.851
997.138
996.405
995.652
994.881
994.092
993.287
992.468
991.636
990.793
989.941
989.083
988.221
987.358
986.496
985.638
984.786
983.945
983.115
982.3
981.502
980.723
979.966
979.232
978.522
977.838
977.182
976.553
975.953
975.382
974.839
974.325
973.839
973.382
972.952
972.548
972.171
971.818
971.49
971.184
970.9
970.638
970.396
970.174
969.97
969.784
969.614
969.461
969.323
969.2
969.092
968.997
968.916
968.848
968.792
968.749
968.718
968.698
968.69
968.693
968.707
968.733
968.768
968.814
968.87
968.937
969.012
969.098
969.192
969.296
969.409
969.53
969.66
969.798
969.943
970.096
970.256
970.424
970.599
970.78
970.968
971.163
971.365
971.572
971.786
972.007
972.234
972.467
972.707
972.953
973.207
973.467
973.734
974.008
974.29
974.579
974.875
975.178
975.489
975.808
976.133
976.466
976.805
977.152
977.504
977.862
978.225
978.593
978.965
979.341
979.719
980.099
980.48
980.861
981.242
981.621
981.998
982.371
982.739
983.102
983.459
983.809
984.152
984.485
984.809
985.122
985.425
985.716
985.995
986.261
986.514
986.753
986.979
987.19
987.388
987.57
987.738
987.892
988.031
988.155
988.265
988.36
988.442
988.509
988.562
988.602
988.628
988.639
988.637
988.621
988.59
988.543
988.482
988.403
988.307
988.193
988.061
987.908
987.734
987.539
987.321
987.081
986.818
986.531
986.223
985.892
985.542
985.172
984.786
984.385
983.972
983.55
983.123
982.693
982.264
981.84
981.425
981.022
980.636
980.269
979.924
979.603
979.311
979.048
978.817
978.619
978.454
978.325
978.229
978.169
978.142
978.148
978.186
978.254
978.351
978.473
978.62
978.786
978.971
979.172
979.384
979.605
979.832
980.063
980.293
980.52
980.741
980.953
981.154
981.343
981.515
981.671
981.808
981.925
982.021
982.095
982.147
982.176
982.183
982.167
982.131
982.072
981.993
981.896
981.78
981.645
981.494
981.328
981.147
980.949
980.741
980.524
980.282
980.03
979.79
979.52
979.207
978.945
978.7
978.334
978.012
977.851
977.573
977.228
977.13
977.13
977.046
977.128
977.553
1016.39
1016.37
1016.25
1016.09
1015.92
1015.6
1015.39
1015.18
1014.82
1014.54
1014.3
1014
1013.7
1013.43
1013.17
1012.88
1012.6
1012.34
1012.07
1011.79
1011.52
1011.24
1010.96
1010.68
1010.39
1010.1
1009.8
1009.49
1009.18
1008.86
1008.52
1008.18
1007.83
1007.46
1007.08
1006.69
1006.28
1005.86
1005.42
1004.96
1004.48
1003.99
1003.48
1002.95
1002.39
1001.82
1001.22
1000.61
999.966
999.303
998.618
997.911
997.182
996.431
995.66
994.87
994.061
993.235
992.394
991.54
990.674
989.798
988.917
988.032
987.146
986.261
985.382
984.51
983.649
982.802
981.97
981.158
980.368
979.6
978.857
978.142
977.454
976.795
976.166
975.567
974.999
974.461
973.952
973.474
973.024
972.603
972.208
971.841
971.498
971.179
970.884
970.61
970.357
970.125
969.911
969.715
969.536
969.374
969.226
969.094
968.976
968.872
968.782
968.704
968.638
968.584
968.543
968.513
968.495
968.488
968.492
968.508
968.534
968.571
968.618
968.676
968.744
968.822
968.91
969.008
969.116
969.233
969.359
969.494
969.638
969.79
969.95
970.118
970.293
970.476
970.666
970.863
971.068
971.278
971.496
971.719
971.949
972.186
972.429
972.678
972.934
973.197
973.466
973.741
974.024
974.313
974.609
974.913
975.223
975.54
975.864
976.195
976.533
976.877
977.227
977.583
977.944
978.31
978.68
979.054
979.431
979.811
980.191
980.573
980.954
981.335
981.713
982.089
982.461
982.829
983.191
983.546
983.895
984.235
984.567
984.889
985.201
985.501
985.791
986.068
986.332
986.584
986.822
987.046
987.256
987.452
987.634
987.801
987.953
988.091
988.215
988.324
988.419
988.5
988.567
988.62
988.659
988.685
988.696
988.694
988.677
988.645
988.598
988.536
988.456
988.36
988.245
988.111
987.956
987.781
987.583
987.362
987.118
986.85
986.558
986.244
985.907
985.548
985.17
984.774
984.362
983.938
983.505
983.066
982.624
982.184
981.749
981.323
980.91
980.513
980.137
979.784
979.456
979.157
978.889
978.653
978.452
978.285
978.153
978.058
977.998
977.973
977.982
978.023
978.096
978.198
978.327
978.48
978.654
978.848
979.057
979.279
979.509
979.746
979.986
980.226
980.463
980.695
980.917
981.127
981.325
981.506
981.67
981.815
981.939
982.042
982.123
982.18
982.215
982.227
982.217
982.185
982.131
982.058
981.965
981.854
981.726
981.582
981.422
981.251
981.064
980.861
980.653
980.437
980.196
979.95
979.722
979.459
979.162
978.93
978.7
978.38
978.131
977.987
977.781
977.607
977.592
977.634
977.783
978.152
1016.17
1016.09
1015.99
1015.92
1015.71
1015.49
1015.32
1015.05
1014.79
1014.57
1014.3
1014.02
1013.77
1013.52
1013.24
1012.98
1012.73
1012.47
1012.2
1011.93
1011.67
1011.4
1011.12
1010.85
1010.57
1010.28
1009.98
1009.68
1009.36
1009.04
1008.71
1008.37
1008.02
1007.65
1007.27
1006.88
1006.47
1006.04
1005.6
1005.14
1004.66
1004.17
1003.65
1003.11
1002.55
1001.97
1001.36
1000.73
1000.08
999.404
998.704
997.981
997.234
996.465
995.674
994.863
994.031
993.182
992.316
991.437
990.545
989.644
988.736
987.825
986.913
986.003
985.1
984.205
983.322
982.455
981.606
980.778
979.973
979.194
978.442
977.72
977.027
976.366
975.737
975.14
974.575
974.043
973.541
973.071
972.63
972.218
971.835
971.478
971.146
970.839
970.554
970.292
970.05
969.827
969.623
969.436
969.265
969.109
968.969
968.843
968.73
968.63
968.543
968.468
968.405
968.353
968.314
968.285
968.267
968.261
968.266
968.281
968.308
968.346
968.394
968.453
968.523
968.603
968.694
968.795
968.906
969.028
969.159
969.299
969.449
969.608
969.776
969.952
970.137
970.329
970.53
970.738
970.953
971.175
971.404
971.639
971.881
972.13
972.385
972.646
972.914
973.188
973.468
973.754
974.047
974.347
974.652
974.965
975.284
975.609
975.94
976.278
976.622
976.971
977.326
977.687
978.051
978.42
978.793
979.169
979.548
979.928
980.309
980.69
981.071
981.45
981.827
982.202
982.572
982.937
983.296
983.649
983.995
984.332
984.661
984.98
985.288
985.586
985.872
986.146
986.407
986.655
986.891
987.112
987.32
987.513
987.693
987.858
988.008
988.145
988.267
988.375
988.469
988.549
988.615
988.667
988.706
988.73
988.741
988.738
988.72
988.687
988.64
988.576
988.495
988.397
988.281
988.145
987.988
987.81
987.609
987.385
987.137
986.865
986.568
986.247
985.903
985.537
985.15
984.745
984.324
983.89
983.446
982.996
982.544
982.093
981.647
981.211
980.789
980.383
979.998
979.637
979.303
978.998
978.724
978.484
978.279
978.11
977.977
977.881
977.822
977.799
977.81
977.856
977.933
978.04
978.176
978.336
978.518
978.72
978.938
979.169
979.41
979.657
979.907
980.158
980.405
980.646
980.878
981.099
981.306
981.497
981.67
981.823
981.955
982.065
982.152
982.217
982.258
982.276
982.271
982.244
982.197
982.129
982.042
981.937
981.817
981.681
981.529
981.364
981.19
981.002
980.799
980.595
980.385
980.146
979.911
979.7
979.448
979.174
978.971
978.768
978.5
978.309
978.212
978.088
978.018
978.089
978.257
978.582
1015.94
1015.9
1015.83
1015.71
1015.55
1015.42
1015.2
1014.97
1014.79
1014.55
1014.29
1014.07
1013.83
1013.57
1013.33
1013.09
1012.83
1012.58
1012.33
1012.07
1011.81
1011.55
1011.28
1011.01
1010.73
1010.45
1010.16
1009.86
1009.55
1009.23
1008.91
1008.57
1008.21
1007.85
1007.47
1007.08
1006.67
1006.24
1005.8
1005.34
1004.86
1004.35
1003.83
1003.29
1002.72
1002.13
1001.51
1000.87
1000.21
999.516
998.801
998.06
997.295
996.506
995.693
994.858
994.002
993.127
992.235
991.327
990.407
989.477
988.54
987.599
986.659
985.721
984.79
983.87
982.963
982.074
981.205
980.359
979.539
978.747
977.986
977.255
976.559
975.896
975.267
974.673
974.112
973.585
973.092
972.631
972.201
971.801
971.429
971.084
970.765
970.47
970.199
969.948
969.718
969.506
969.312
969.135
968.973
968.826
968.692
968.572
968.465
968.369
968.286
968.214
968.153
968.103
968.064
968.036
968.019
968.012
968.016
968.032
968.059
968.096
968.145
968.204
968.275
968.357
968.45
968.554
968.668
968.794
968.93
969.077
969.233
969.4
969.576
969.761
969.956
970.159
970.371
970.591
970.819
971.054
971.296
971.545
971.801
972.064
972.333
972.609
972.891
973.179
973.472
973.772
974.078
974.39
974.707
975.031
975.36
975.695
976.036
976.382
976.733
977.089
977.45
977.815
978.184
978.557
978.933
979.311
979.69
980.071
980.452
980.832
981.212
981.59
981.965
982.336
982.703
983.065
983.421
983.769
984.111
984.444
984.768
985.081
985.385
985.678
985.959
986.228
986.484
986.728
986.959