# vtk DataFile Version 2.0
LBE mesh
ASCII
DATASET STRUCTURED_POINTS
DIMENSIONS 300 100 1
ASPECT_RATIO 1 1 1
ORIGIN 0 0 0
POINT_DATA 30000
SCALARS rho double 1
LOOKUP_TABLE default
1047.05
1015.37
1014.64
1021.1
1019.26
1015.34
1015.13
1015.63
1014.85
1014.04
1013.86
1013.68
1013.29
1012.97
1012.75
1012.52
1012.26
1012.02
1011.8
1011.58
1011.35
1011.12
1010.89
1010.66
1010.42
1010.18
1009.94
1009.68
1009.42
1009.16
1008.88
1008.6
1008.3
1007.99
1007.68
1007.35
1007.01
1006.66
1006.29
1005.91
1005.51
1005.1
1004.67
1004.23
1003.77
1003.29
1002.79
1002.28
1001.75
1001.2
1000.63
1000.04
999.44
998.818
998.179
997.524
996.853
996.166
995.466
994.752
994.027
993.292
992.547
991.796
991.039
990.278
989.516
988.753
987.992
987.235
986.484
985.741
985.007
984.284
983.575
982.88
982.201
981.539
980.896
980.273
979.67
979.089
978.53
977.993
977.48
976.99
976.523
976.08
975.66
975.264
974.891
974.54
974.212
973.906
973.621
973.358
973.115
972.892
972.688
972.503
972.336
972.187
972.055
971.939
971.839
971.754
971.684
971.628
971.585
971.555
971.537
971.531
971.536
971.552
971.579
971.615
971.66
971.714
971.776
971.846
971.923
972.008
972.098
972.195
972.297
972.404
972.515
972.631
972.75
972.873
972.998
973.126
973.256
973.387
973.519
973.652
973.784
973.917
974.049
974.18
974.309
974.437
974.563
974.686
974.806
974.923
975.036
975.146
975.252
975.353
975.45
975.542
975.629
975.711
975.788
975.859
975.925
975.985
976.039
976.087
976.129
976.165
976.195
976.22
976.237
976.249
976.254
976.252
976.244
976.23
976.208
976.181
976.146
976.104
976.056
976
975.938
975.869
975.793
975.711
975.622
975.529
975.43
975.326
975.219
975.108
974.997
974.884
974.772
974.662
974.555
974.453
974.357
974.27
974.192
974.124
974.07
974.03
974.006
973.999
974.01
974.04
974.091
974.162
974.255
974.369
974.505
974.663
974.842
975.042
975.262
975.501
975.758
976.031
976.32
976.623
976.939
977.265
977.601
977.944
978.294
978.647
979.004
979.362
979.72
980.077
980.43
980.78
981.125
981.464
981.797
982.121
982.438
982.746
983.044
983.333
983.612
983.881
984.14
984.389
984.627
984.855
985.073
985.281
985.479
985.668
985.848
986.018
986.18
986.333
986.478
986.614
986.743
986.864
986.977
987.083
987.181
987.272
987.355
987.431
987.499
987.558
987.61
987.653
987.687
987.712
987.727
987.732
987.727
987.71
987.681
987.64
987.586
987.518
987.437
987.341
987.229
987.102
986.957
986.796
986.617
986.416
986.194
985.958
985.694
985.385
985.07
984.75
984.316
983.804
983.443
982.95
981.864
981.112
981.204
979.156
975.206
977.172
977.902
953.9
1029.95
1026.4
1022.31
1017.1
1017.27
1017.42
1016.23
1015.06
1014.81
1014.55
1014.05
1013.64
1013.39
1013.12
1012.83
1012.56
1012.33
1012.09
1011.84
1011.61
1011.38
1011.15
1010.91
1010.68
1010.44
1010.19
1009.94
1009.69
1009.42
1009.15
1008.87
1008.59
1008.29
1007.98
1007.66
1007.33
1006.99
1006.63
1006.26
1005.88
1005.48
1005.07
1004.64
1004.19
1003.73
1003.25
1002.75
1002.24
1001.71
1001.15
1000.58
999.998
999.393
998.771
998.132
997.477
996.805
996.119
995.419
994.707
993.983
993.249
992.506
991.756
991.002
990.243
989.483
988.723
987.965
987.211
986.463
985.723
984.992
984.273
983.566
982.875
982.199
981.541
980.901
980.281
979.681
979.102
978.546
978.013
977.502
977.014
976.549
976.108
975.69
975.296
974.924
974.575
974.248
973.943
973.66
973.397
973.155
972.932
972.729
972.544
972.378
972.229
972.097
971.981
971.881
971.795
971.725
971.669
971.626
971.595
971.577
971.571
971.576
971.592
971.617
971.653
971.697
971.751
971.812
971.882
971.959
972.042
972.132
972.228
972.33
972.436
972.547
972.662
972.781
972.903
973.028
973.156
973.285
973.416
973.548
973.68
973.813
973.945
974.077
974.207
974.337
974.465
974.59
974.713
974.833
974.95
975.063
975.173
975.279
975.38
975.477
975.569
975.656
975.738
975.815
975.886
975.951
976.011
976.065
976.113
976.155
976.191
976.221
976.245
976.262
976.273
976.278
976.276
976.268
976.253
976.232
976.204
976.169
976.128
976.079
976.024
975.962
975.893
975.818
975.736
975.649
975.556
975.458
975.355
975.249
975.139
975.028
974.916
974.805
974.695
974.589
974.487
974.391
974.304
974.225
974.158
974.103
974.062
974.036
974.028
974.037
974.066
974.114
974.183
974.273
974.386
974.519
974.674
974.851
975.048
975.265
975.501
975.755
976.026
976.313
976.614
976.927
977.251
977.585
977.927
978.274
978.627
978.982
979.339
979.696
980.051
980.405
980.754
981.099
981.438
981.77
982.094
982.411
982.719
983.018
983.307
983.586
983.856
984.115
984.364
984.603
984.832
985.05
985.259
985.458
985.647
985.827
985.998
986.16
986.314
986.459
986.596
986.725
986.846
986.96
987.066
987.164
987.255
987.339
987.415
987.483
987.543
987.594
987.638
987.672
987.697
987.712
987.718
987.712
987.695
987.666
987.625
987.571
987.503
987.422
987.325
987.213
987.084
986.939
986.775
986.593
986.392
986.168
985.918
985.65
985.358
985.017
984.639
984.265
983.811
983.204
982.639
982.129
981.076
979.716
979.147
977.896
973.588
969.629
967.443
1021.85
1026.65
1021.98
1017.67
1017.9
1017.61
1016.22
1015.26
1015.05
1014.69
1014.15
1013.76
1013.5
1013.21
1012.9
1012.64
1012.39
1012.14
1011.89
1011.66
1011.42
1011.18
1010.95
1010.71
1010.46
1010.21
1009.96
1009.7
1009.44
1009.16
1008.88
1008.59
1008.29
1007.98
1007.66
1007.33
1006.98
1006.62
1006.25
1005.87
1005.47
1005.05
1004.62
1004.17
1003.71
1003.23
1002.73
1002.21
1001.68
1001.12
1000.55
999.966
999.36
998.736
998.096
997.439
996.767
996.08
995.379
994.666
993.941
993.207
992.464
991.714
990.96
990.201
989.441
988.682
987.925
987.172
986.425
985.686
984.957
984.24
983.535
982.845
982.172
981.516
980.878
980.26
979.663
979.087
978.534
978.003
977.495
977.009
976.547
976.109
975.693
975.301
974.931
974.584
974.26
973.956
973.674
973.413
973.173
972.952
972.749
972.566
972.401
972.252
972.121
972.006
971.907
971.822
971.752
971.696
971.653
971.623
971.606
971.6
971.605
971.62
971.646
971.682
971.727
971.78
971.842
971.911
971.987
972.071
972.161
972.257
972.358
972.464
972.575
972.69
972.81
972.932
973.057
973.184
973.313
973.444
973.576
973.709
973.841
973.974
974.106
974.237
974.367
974.495
974.62
974.743
974.864
974.981
975.094
975.204
975.311
975.412
975.509
975.601
975.689
975.771
975.848
975.919
975.984
976.044
976.098
976.146
976.188
976.224
976.253
976.277
976.294
976.305
976.31
976.308
976.299
976.285
976.263
976.235
976.201
976.159
976.111
976.056
975.994
975.926
975.851
975.769
975.682
975.589
975.491
975.388
975.282
975.173
975.061
974.949
974.837
974.726
974.619
974.516
974.419
974.329
974.249
974.179
974.122
974.079
974.051
974.04
974.046
974.072
974.118
974.185
974.272
974.382
974.513
974.666
974.84
975.035
975.25
975.485
975.737
976.007
976.293
976.593
976.905
977.229
977.562
977.904
978.251
978.603
978.959
979.316
979.673
980.029
980.383
980.733
981.078
981.418
981.751
982.076
982.393
982.702
983.002
983.291
983.571
983.841
984.101
984.351
984.59
984.819
985.038
985.247
985.447
985.636
985.817
985.988
986.15
986.304
986.449
986.587
986.716
986.837
986.951
987.057
987.155
987.247
987.331
987.407
987.475
987.535
987.588
987.632
987.667
987.692
987.708
987.713
987.709
987.692
987.664
987.623
987.57
987.503
987.422
987.325
987.213
987.084
986.94
986.776
986.591
986.389
986.168
985.915
985.636
985.351
985.021
984.61
984.217
983.845
983.219
982.46
982.128
981.46
979.453
978.566
979.392
974.93
969.091
973.009
1021.57
1020.3
1019.76
1020.93
1018.42
1016.31
1016.26
1016.17
1015.25
1014.54
1014.3
1014.02
1013.61
1013.26
1013.01
1012.74
1012.47
1012.21
1011.97
1011.72
1011.48
1011.24
1010.99
1010.75
1010.5
1010.25
1010
1009.73
1009.47
1009.19
1008.91
1008.61
1008.31
1008
1007.68
1007.34
1007
1006.64
1006.26
1005.87
1005.47
1005.05
1004.62
1004.17
1003.71
1003.22
1002.72
1002.2
1001.67
1001.11
1000.54
999.947
999.338
998.712
998.068
997.409
996.734
996.044
995.34
994.624
993.897
993.16
992.414
991.662
990.904
990.144
989.383
988.621
987.863
987.109
986.361
985.622
984.892
984.175
983.471
982.782
982.11
981.455
980.819
980.203
979.608
979.035
978.484
977.956
977.451
976.968
976.509
976.074
975.662
975.273
974.906
974.562
974.24
973.94
973.661
973.403
973.164
972.945
972.746
972.565
972.401
972.255
972.126
972.013
971.915
971.831
971.763
971.708
971.667
971.638
971.621
971.616
971.622
971.638
971.665
971.701
971.746
971.8
971.862
971.932
972.01
972.094
972.184
972.28
972.382
972.488
972.6
972.716
972.835
972.958
973.083
973.211
973.341
973.472
973.604
973.737
973.871
974.003
974.136
974.268
974.398
974.526
974.652
974.776
974.897
975.015
975.128
975.239
975.346
975.448
975.545
975.638
975.726
975.808
975.885
975.956
976.022
976.083
976.136
976.185
976.226
976.262
976.292
976.316
976.333
976.344
976.348
976.346
976.338
976.323
976.301
976.273
976.239
976.197
976.149
976.094
976.032
975.964
975.889
975.807
975.72
975.627
975.528
975.424
975.317
975.207
975.094
974.98
974.866
974.753
974.643
974.537
974.437
974.345
974.261
974.188
974.127
974.08
974.049
974.034
974.037
974.06
974.102
974.166
974.251
974.358
974.487
974.638
974.81
975.004
975.219
975.453
975.705
975.975
976.261
976.561
976.874
977.199
977.533
977.876
978.225
978.578
978.935
979.294
979.652
980.01
980.365
980.716
981.063
981.404
981.738
982.065
982.383
982.693
982.993
983.284
983.565
983.836
984.096
984.346
984.586
984.816
985.035
985.244
985.444
985.634
985.814
985.985
986.148
986.302
986.447
986.584
986.714
986.835
986.949
987.055
987.154
987.246
987.33
987.407
987.476
987.537
987.59
987.634
987.67
987.696
987.713
987.72
987.716
987.701
987.674
987.635
987.583
987.517
987.437
987.341
987.231
987.103
986.958
986.797
986.615
986.411
986.187
985.947
985.672
985.359
985.046
984.703
984.243
983.772
983.4
982.774
981.811
981.321
980.877
978.891
977.155
977.149
976.018
973.819
1021.56
1019.38
1019.3
1019.19
1017.7
1017.28
1016.71
1015.85
1015.23
1014.92
1014.54
1014.07
1013.71
1013.43
1013.14
1012.84
1012.57
1012.31
1012.06
1011.81
1011.56
1011.31
1011.07
1010.82
1010.57
1010.31
1010.06
1009.79
1009.52
1009.24
1008.96
1008.66
1008.36
1008.04
1007.72
1007.38
1007.03
1006.67
1006.29
1005.9
1005.5
1005.08
1004.64
1004.19
1003.72
1003.24
1002.73
1002.21
1001.67
1001.11
1000.53
999.938
999.325
998.695
998.047
997.383
996.702
996.007
995.298
994.577
993.844
993.102
992.351
991.593
990.831
990.066
989.299
988.534
987.772
987.014
986.264
985.522
984.791
984.071
983.367
982.677
982.005
981.351
980.717
980.103
979.51
978.939
978.391
977.866
977.364
976.886
976.431
975.999
975.592
975.207
974.845
974.505
974.187
973.891
973.616
973.361
973.127
972.912
972.716
972.538
972.378
972.235
972.108
971.998
971.903
971.822
971.756
971.703
971.664
971.637
971.622
971.619
971.626
971.644
971.672
971.71
971.756
971.812
971.875
971.946
972.024
972.109
972.201
972.298
972.4
972.508
972.62
972.736
972.857
972.98
973.106
973.235
973.365
973.497
973.63
973.764
973.898
974.032
974.165
974.297
974.428
974.557
974.684
974.809
974.93
975.049
975.163
975.275
975.382
975.485
975.583
975.676
975.764
975.847
975.925
975.997
976.063
976.124
976.178
976.226
976.269
976.305
976.335
976.358
976.375
976.386
976.391
976.389
976.381
976.366
976.345
976.316
976.282
976.24
976.192
976.137
976.075
976.006
975.93
975.848
975.76
975.666
975.566
975.461
975.351
975.238
975.123
975.006
974.889
974.773
974.66
974.55
974.446
974.349
974.26
974.182
974.117
974.066
974.03
974.01
974.01
974.029
974.068
974.128
974.211
974.316
974.443
974.593
974.765
974.958
975.173
975.407
975.661
975.932
976.219
976.521
976.836
977.163
977.499
977.844
978.196
978.552
978.911
979.272
979.633
979.993
980.351
980.704
981.053
981.395
981.731
982.059
982.379
982.69
982.992
983.284
983.566
983.838
984.099
984.35
984.59
984.82
985.039
985.249
985.448
985.638
985.819
985.99
986.153
986.306
986.452
986.589
986.718
986.84
986.954
987.061
987.16
987.252
987.337
987.414
987.484
987.546
987.6
987.645
987.682
987.71
987.728
987.737
987.735
987.721
987.697
987.659
987.609
987.546
987.468
987.375
987.267
987.142
987
986.84
986.663
986.465
986.241
986.002
985.747
985.442
985.106
984.792
984.414
983.881
983.438
983.1
982.254
981.26
981.157
980.32
977.983
977.59
977.462
975.256
1019.47
1019.49
1019.07
1017.59
1017.71
1017.55
1016.38
1015.74
1015.57
1015.14
1014.55
1014.18
1013.92
1013.59
1013.25
1012.96
1012.71
1012.44
1012.17
1011.92
1011.67
1011.42
1011.17
1010.91
1010.66
1010.4
1010.14
1009.87
1009.6
1009.32
1009.03
1008.73
1008.43
1008.11
1007.78
1007.44
1007.09
1006.73
1006.35
1005.96
1005.55
1005.13
1004.69
1004.23
1003.76
1003.27
1002.76
1002.23
1001.69
1001.13
1000.54
999.942
999.322
998.685
998.03
997.359
996.671
995.968
995.252
994.522
993.781
993.03
992.271
991.506
990.735
989.963
989.189
988.417
987.648
986.885
986.129
985.383
984.648
983.926
983.218
982.528
981.855
981.201
980.567
979.955
979.364
978.796
978.251
977.73
977.232
976.758
976.308
975.881
975.479
975.099
974.743
974.409
974.096
973.806
973.536
973.287
973.057
972.847
972.656
972.483
972.328
972.189
972.067
971.961
971.869
971.792
971.729
971.68
971.644
971.62
971.608
971.608
971.617
971.638
971.668
971.708
971.757
971.814
971.879
971.952
972.032
972.118
972.211
972.31
972.414
972.523
972.636
972.753
972.874
972.999
973.126
973.255
973.387
973.52
973.653
973.788
973.923
974.057
974.191
974.324
974.456
974.586
974.714
974.839
974.961
975.081
975.196
975.308
975.416
975.52
975.619
975.713
975.802
975.885
975.964
976.036
976.103
976.164
976.219
976.268
976.311
976.348
976.378
976.402
976.419
976.431
976.435
976.434
976.426
976.411
976.389
976.361
976.326
976.284
976.236
976.18
976.118
976.048
975.972
975.888
975.799
975.703
975.601
975.493
975.382
975.266
975.147
975.026
974.905
974.785
974.666
974.552
974.442
974.34
974.246
974.163
974.093
974.036
973.995
973.971
973.966
973.981
974.017
974.075
974.155
974.259
974.385
974.534
974.706
974.9
975.115
975.351
975.607
975.88
976.17
976.474
976.792
977.122
977.462
977.81
978.165
978.525
978.887
979.252
979.616
979.979
980.339
980.695
981.046
981.391
981.729
982.06
982.381
982.694
982.997
983.29
983.573
983.846
984.108
984.359
984.6
984.83
985.05
985.26
985.459
985.649
985.83
986.001
986.163
986.317
986.462
986.599
986.729
986.851
986.965
987.072
987.172
987.264
987.35
987.428
987.499
987.562
987.617
987.664
987.703
987.733
987.753
987.764
987.764
987.753
987.731
987.697
987.65
987.59
987.516
987.426
987.321
987.201
987.065
986.909
986.735
986.546
986.336
986.094
985.84
985.58
985.259
984.89
984.578
984.214
983.619
983.131
982.875
982.049
980.93
980.697
980.192
978.719
977.674
977.269
1018.42
1018.81
1018.33
1017.67
1017.48
1016.74
1016.36
1016.11
1015.54
1015.01
1014.71
1014.42
1014.03
1013.68
1013.4
1013.13
1012.84
1012.57
1012.31
1012.05
1011.8
1011.54
1011.29
1011.04
1010.78
1010.52
1010.25
1009.98
1009.71
1009.43
1009.13
1008.84
1008.53
1008.21
1007.88
1007.54
1007.18
1006.81
1006.43
1006.04
1005.63
1005.2
1004.76
1004.3
1003.82
1003.32
1002.81
1002.28
1001.73
1001.15
1000.56
999.956
999.329
998.682
998.019
997.337
996.64
995.927
995.199
994.459
993.707
992.945
992.175
991.398
990.617
989.834
989.051
988.269
987.492
986.72
985.957
985.204
984.463
983.736
983.025
982.332
981.658
981.003
980.369
979.758
979.169
978.604
978.062
977.545
977.052
976.584
976.139
975.719
975.323
974.95
974.6
974.273
973.968
973.684
973.42
973.178
972.955
972.752
972.567
972.4
972.251
972.118
972.001
971.9
971.813
971.741
971.683
971.638
971.606
971.587
971.579
971.581
971.595
971.619
971.653
971.695
971.747
971.807
971.874
971.95
972.032
972.12
972.215
972.316
972.421
972.532
972.646
972.765
972.888
973.013
973.141
973.272
973.404
973.538
973.673
973.808
973.943
974.079
974.213
974.347
974.479
974.61
974.738
974.864
974.987
975.107
975.224
975.336
975.445
975.549
975.649
975.744
975.834
975.918
975.998
976.071
976.139
976.2
976.256
976.306
976.35
976.387
976.418
976.442
976.461
976.472
976.477
976.476
976.468
976.454
976.432
976.404
976.369
976.327
976.278
976.221
976.158
976.087
976.01
975.925
975.833
975.735
975.631
975.521
975.406
975.286
975.163
975.038
974.912
974.786
974.663
974.542
974.427
974.319
974.219
974.131
974.054
973.993
973.947
973.919
973.91
973.921
973.954
974.01
974.088
974.191
974.316
974.466
974.638
974.833
975.051
975.289
975.547
975.823
976.116
976.424
976.746
977.08
977.424
977.776
978.135
978.498
978.865
979.233
979.601
979.967
980.331
980.69
981.044
981.392
981.732
982.064
982.388
982.703
983.007
983.302
983.586
983.859
984.122
984.374
984.615
984.846
985.066
985.276
985.475
985.665
985.845
986.016
986.178
986.332
986.477
986.615
986.744
986.866
986.981
987.088
987.189
987.282
987.368
987.448
987.52
987.584
987.641
987.691
987.732
987.764
987.787
987.8
987.804
987.797
987.778
987.747
987.704
987.649
987.579
987.495
987.396
987.281
987.15
987.004
986.838
986.653
986.457
986.238
985.984
985.727
985.466
985.126
984.753
984.471
984.082
983.456
983.072
982.799
981.878
981.096
980.863
979.996
979.058
978.564
1018.15
1017.84
1017.6
1017.72
1017.08
1016.49
1016.39
1015.96
1015.44
1015.14
1014.85
1014.45
1014.11
1013.84
1013.56
1013.25
1012.97
1012.72
1012.46
1012.2
1011.94
1011.69
1011.43
1011.17
1010.92
1010.65
1010.39
1010.12
1009.84
1009.55
1009.26
1008.96
1008.65
1008.33
1008
1007.65
1007.29
1006.92
1006.54
1006.14
1005.73
1005.3
1004.85
1004.38
1003.9
1003.4
1002.88
1002.34
1001.78
1001.2
1000.6
999.982
999.344
998.687
998.012
997.319
996.609
995.883
995.142
994.388
993.623
992.847
992.063
991.272
990.478
989.681
988.885
988.092
987.303
986.521
985.748
984.986
984.238
983.505
982.789
982.092
981.414
980.758
980.125
979.514
978.927
978.365
977.828
977.315
976.827
976.365
975.927
975.514
975.125
974.76
974.418
974.099
973.801
973.525
973.271
973.036
972.821
972.626
972.448
972.289
972.146
972.02
971.91
971.815
971.735
971.669
971.617
971.578
971.551
971.536
971.533
971.541
971.559
971.587
971.625
971.671
971.726
971.79
971.861
971.939
972.024
972.116
972.213
972.316
972.423
972.536
972.652
972.773
972.897
973.023
973.153
973.284
973.417
973.552
973.687
973.823
973.959
974.095
974.23
974.364
974.496
974.627
974.756
974.882
975.005
975.126
975.242
975.356
975.465
975.57
975.67
975.765
975.856
975.941
976.021
976.095
976.164
976.227
976.284
976.335
976.379
976.418
976.45
976.475
976.494
976.507
976.512
976.512
976.505
976.49
976.469
976.441
976.406
976.363
976.314
976.257
976.192
976.12
976.041
975.955
975.861
975.76
975.653
975.539
975.421
975.297
975.17
975.04
974.909
974.778
974.648
974.522
974.401
974.286
974.181
974.087
974.005
973.938
973.888
973.856
973.843
973.852
973.882
973.936
974.013
974.115
974.241
974.391
974.565
974.762
974.982
975.224
975.485
975.765
976.062
976.375
976.701
977.039
977.387
977.744
978.107
978.475
978.846
979.218
979.59
979.959
980.327
980.689
981.045
981.396
981.739
982.073
982.399
982.715
983.021
983.317
983.602
983.876
984.14
984.393
984.634
984.865
985.085
985.295
985.495
985.684
985.864
986.035
986.198
986.351
986.497
986.634
986.764
986.886
987.001
987.109
987.21
987.305
987.392
987.473
987.547
987.613
987.673
987.724
987.768
987.803
987.83
987.846
987.853
987.85
987.836
987.81
987.773
987.722
987.659
987.581
987.489
987.382
987.259
987.121
986.97
986.796
986.605
986.408
986.188
985.925
985.672
985.429
985.084
984.703
984.465
984.105
983.471
983.108
982.879
982.151
981.406
981.082
980.616
979.63
1017.68
1017.47
1017.34
1017.14
1016.75
1016.6
1016.19
1015.74
1015.52
1015.22
1014.82
1014.5
1014.25
1013.96
1013.65
1013.38
1013.13
1012.86
1012.6
1012.34
1012.09
1011.84
1011.58
1011.33
1011.07
1010.81
1010.54
1010.27
1009.99
1009.7
1009.41
1009.11
1008.79
1008.47
1008.14
1007.79
1007.43
1007.06
1006.67
1006.27
1005.85
1005.41
1004.96
1004.49
1004
1003.49
1002.96
1002.42
1001.85
1001.26
1000.65
1000.02
999.369
998.7
998.011
997.303
996.579
995.837
995.081
994.311
993.528
992.736
991.935
991.128
990.317
989.505
988.693
987.885
987.082
986.287
985.503
984.731
983.973
983.232
982.51
981.808
981.128
980.469
979.835
979.226
978.641
978.081
977.548
977.041
976.559
976.103
975.673
975.268
974.888
974.531
974.198
973.888
973.6
973.334
973.088
972.863
972.657
972.47
972.301
972.15
972.016
971.898
971.795
971.708
971.635
971.576
971.531
971.498
971.478
971.469
971.472
971.485
971.509
971.542
971.585
971.636
971.696
971.763
971.839
971.92
972.009
972.104
972.204
972.31
972.42
972.535
972.653
972.775
972.901
973.029
973.159
973.292
973.426
973.561
973.697
973.833
973.969
974.105
974.24
974.373
974.506
974.636
974.765
974.891
975.014
975.134
975.25
975.363
975.472
975.577
975.678
975.774
975.864
975.95
976.031
976.106
976.175
976.239
976.297
976.349
976.395
976.434
976.468
976.494
976.515
976.528
976.535
976.535
976.529
976.516
976.495
976.467
976.432
976.389
976.339
976.282
976.216
976.143
976.063
975.974
975.878
975.775
975.664
975.548
975.425
975.297
975.166
975.031
974.894
974.758
974.623
974.491
974.365
974.245
974.134
974.034
973.948
973.876
973.822
973.786
973.771
973.777
973.806
973.858
973.935
974.037
974.164
974.316
974.492
974.692
974.915
975.16
975.425
975.709
976.011
976.328
976.658
977.001
977.355
977.716
978.083
978.455
978.83
979.207
979.582
979.956
980.326
980.691
981.051
981.404
981.749
982.086
982.413
982.731
983.038
983.335
983.621
983.896
984.161
984.414
984.656
984.887
985.107
985.317
985.517
985.706
985.886
986.057
986.219
986.373
986.519
986.656
986.787
986.909
987.025
987.134
987.236
987.332
987.421
987.503
987.579
987.648
987.71
987.764
987.811
987.85
987.88
987.901
987.913
987.914
987.906
987.886
987.854
987.81
987.754
987.684
987.6
987.504
987.392
987.264
987.124
986.972
986.797
986.606
986.417
986.201
985.942
985.71
985.487
985.145
984.807
984.608
984.243
983.721
983.435
983.112
982.529
982.081
981.658
980.939
1017.15
1017.18
1017.07
1016.72
1016.61
1016.42
1015.99
1015.75
1015.5
1015.15
1014.85
1014.61
1014.32
1014.02
1013.76
1013.51
1013.25
1012.99
1012.74
1012.49
1012.24
1011.99
1011.74
1011.49
1011.23
1010.97
1010.7
1010.43
1010.15
1009.87
1009.57
1009.27
1008.96
1008.63
1008.3
1007.95
1007.59
1007.21
1006.82
1006.41
1005.99
1005.55
1005.09
1004.61
1004.12
1003.6
1003.07
1002.51
1001.93
1001.33
1000.71
1000.07
999.404
998.719
998.015
997.291
996.549
995.79
995.016
994.226
993.425
992.612
991.792
990.966
990.136
989.305
988.475
987.65
986.83
986.021
985.222
984.438
983.67
982.92
982.191
981.483
980.798
980.138
979.503
978.893
978.311
977.755
977.227
976.725
976.25
975.802
975.381
974.984
974.613
974.267
973.944
973.644
973.367
973.111
972.876
972.66
972.465
972.288
972.128
971.987
971.862
971.753
971.659
971.58
971.515
971.465
971.427
971.402
971.388
971.387
971.396
971.416
971.446
971.485
971.534
971.59
971.656
971.728
971.808
971.895
971.987
972.085
972.189
972.298
972.411
972.529
972.65
972.774
972.901
973.031
973.162
973.296
973.43
973.566
973.701
973.838
973.973
974.109
974.243
974.376
974.507
974.637
974.764
974.889
975.011
975.13
975.245
975.357
975.466
975.57
975.67
975.765
975.856
975.942
976.023
976.098
976.168
976.232
976.291
976.344
976.391
976.432
976.467
976.495
976.517
976.532
976.54
976.542
976.537
976.524
976.505
976.477
976.443
976.401
976.351
976.293
976.227
976.153
976.071
975.981
975.883
975.777
975.664
975.544
975.418
975.286
975.151
975.011
974.87
974.729
974.589
974.453
974.321
974.196
974.081
973.977
973.886
973.811
973.754
973.715
973.697
973.702
973.73
973.782
973.86
973.963
974.091
974.245
974.424
974.627
974.853
975.102
975.371
975.659
975.966
976.287
976.623
976.97
977.328
977.694
978.066
978.442
978.821
979.201
979.581
979.957
980.331
980.699
981.061
981.416
981.763
982.101
982.43
982.749
983.058
983.356
983.643
983.918
984.183
984.436
984.678
984.91
985.13
985.34
985.54
985.729
985.909
986.08
986.243
986.397
986.543
986.681
986.811
986.935
987.052
987.161
987.265
987.363
987.454
987.538
987.616
987.688
987.753
987.81
987.861
987.903
987.938
987.964
987.981
987.989
987.986
987.973
987.948
987.912
987.865
987.805
987.731
987.645
987.547
987.435
987.306
987.17
987.024
986.853
986.671
986.501
986.301
986.054
985.855
985.669
985.351
985.059
984.906
984.603
984.171
983.926
983.675
983.215
982.801
982.306
1016.85
1016.84
1016.73
1016.58
1016.43
1016.12
1015.93
1015.73
1015.4
1015.13
1014.91
1014.64
1014.35
1014.11
1013.87
1013.61
1013.36
1013.12
1012.88
1012.63
1012.38
1012.14
1011.89
1011.64
1011.39
1011.13
1010.87
1010.6
1010.32
1010.04
1009.74
1009.44
1009.13
1008.8
1008.47
1008.12
1007.76
1007.38
1006.98
1006.57
1006.15
1005.7
1005.24
1004.76
1004.25
1003.73
1003.18
1002.62
1002.03
1001.42
1000.78
1000.13
999.447
998.746
998.025
997.282
996.522
995.742
994.947
994.136
993.313
992.479
991.636
990.787
989.935
989.083
988.232
987.387
986.549
985.722
984.909
984.11
983.33
982.57
981.832
981.117
980.428
979.765
979.129
978.52
977.94
977.389
976.865
976.371
975.904
975.464
975.052
974.666
974.305
973.97
973.658
973.37
973.104
972.859
972.635
972.432
972.247
972.081
971.932
971.801
971.686
971.587
971.503
971.433
971.377
971.335
971.306
971.289
971.284
971.29
971.307
971.334
971.371
971.417
971.472
971.535
971.606
971.685
971.77
971.861
971.959
972.062
972.17
972.282
972.399
972.52
972.643
972.77
972.899
973.03
973.163
973.297
973.431
973.567
973.703
973.838
973.973
974.107
974.24
974.372
974.501
974.629
974.754
974.877
974.997
975.114
975.227
975.337
975.444
975.546
975.645
975.739
975.828
975.913
975.994
976.069
976.139
976.203
976.262
976.316
976.364
976.406
976.442
976.472
976.495
976.512
976.522
976.526
976.523
976.512
976.494
976.468
976.434
976.393
976.344
976.286
976.22
976.146
976.063
975.972
975.872
975.764
975.649
975.527
975.398
975.263
975.124
974.982
974.837
974.692
974.548
974.408
974.272
974.144
974.025
973.917
973.824
973.747
973.687
973.647
973.628
973.632
973.66
973.713
973.791
973.896
974.026
974.183
974.365
974.571
974.801
975.054
975.327
975.62
975.931
976.257
976.597
976.949
977.311
977.681
978.057
978.437
978.82
979.203
979.586
979.965
980.341
980.711
981.076
981.433
981.781
982.121
982.451
982.77
983.08
983.378
983.665
983.941
984.206
984.459
984.701
984.933
985.153
985.363
985.562
985.752
985.932
986.103
986.266
986.42
986.566
986.705
986.837
986.961
987.08
987.191
987.296
987.395
987.489
987.576
987.657
987.732
987.8
987.862
987.916
987.964
988.004
988.035
988.058
988.072
988.077
988.071
988.055
988.029
987.99
987.941
987.881
987.807
987.722
987.628
987.521
987.399
987.273
987.14
986.983
986.821
986.68
986.504
986.292
986.14
985.987
985.731
985.52
985.389
985.147
984.875
984.664
984.401
984.138
983.674
1016.63
1016.55
1016.47
1016.41
1016.22
1016.01
1015.86
1015.6
1015.36
1015.16
1014.9
1014.65
1014.42
1014.19
1013.94
1013.7
1013.47
1013.24
1013
1012.76
1012.53
1012.29
1012.05
1011.8
1011.55
1011.3
1011.04
1010.77
1010.5
1010.21
1009.92
1009.62
1009.31
1008.99
1008.65
1008.3
1007.94
1007.56
1007.16
1006.75
1006.32
1005.87
1005.4
1004.91
1004.4
1003.87
1003.32
1002.74
1002.14
1001.51
1000.87
1000.19
999.498
998.78
998.039
997.277
996.495
995.694
994.875
994.04
993.192
992.333
991.465
990.592
989.715
988.839
987.965
987.097
986.238
985.392
984.561
983.746
982.952
982.18
981.433
980.711
980.017
979.351
978.714
978.107
977.53
976.983
976.466
975.979
975.521
975.091
974.689
974.314
973.966
973.642
973.343
973.067
972.814
972.582
972.37
972.179
972.006
971.852
971.715
971.595
971.491
971.402
971.328
971.269
971.223
971.19
971.17
971.162
971.166
971.181
971.206
971.241
971.286
971.339
971.401
971.471
971.549
971.634
971.725
971.822
971.925
972.033
972.146
972.262
972.383
972.507
972.634
972.763
972.894
973.026
973.16
973.295
973.43
973.566
973.701
973.835
973.969
974.102
974.233
974.362
974.489
974.614
974.736
974.856
974.973
975.087
975.197
975.304
975.407
975.507
975.602
975.694
975.781
975.864
975.943
976.017
976.086
976.149
976.208
976.262
976.311
976.354
976.391
976.422
976.447
976.466
976.478
976.484
976.482
976.474
976.458
976.434
976.402
976.363
976.315
976.258
976.193
976.119
976.037
975.945
975.845
975.736
975.62
975.496
975.366
975.23
975.088
974.943
974.797
974.649
974.503
974.36
974.222
974.091
973.97
973.861
973.766
973.687
973.627
973.586
973.567
973.572
973.601
973.655
973.735
973.842
973.975
974.135
974.32
974.53
974.764
975.02
975.298
975.595
975.91
976.24
976.585
976.94
977.307
977.68
978.06
978.443
978.829
979.214
979.599
979.98
980.358
980.73
981.096
981.454
981.803
982.143
982.473
982.793
983.103
983.401
983.688
983.964
984.229
984.482
984.723
984.954
985.174
985.384
985.583
985.773
985.953
986.124
986.287
986.442
986.589
986.728
986.861
986.987
987.107
987.22
987.328
987.43
987.526
987.616
987.701
987.779
987.852
987.917
987.977
988.03
988.075
988.113
988.143
988.164
988.177
988.18
988.174
988.158
988.131
988.094
988.047
987.99
987.921
987.843
987.759
987.662
987.554
987.448
987.339
987.205
987.076
986.975
986.838
986.676
986.582
986.484
986.303
986.175
986.102
985.95
985.769
985.623
985.488
985.116
1016.39
1016.36
1016.3
1016.19
1016.05
1015.94
1015.73
1015.52
1015.35
1015.13
1014.89
1014.69
1014.47
1014.24
1014.01
1013.8
1013.57
1013.34
1013.12
1012.89
1012.66
1012.43
1012.2
1011.96
1011.71
1011.46
1011.21
1010.94
1010.67
1010.4
1010.11
1009.81
1009.5
1009.18
1008.84
1008.49
1008.13
1007.75
1007.35
1006.93
1006.5
1006.05
1005.58
1005.08
1004.56
1004.02
1003.46
1002.87
1002.26
1001.62
1000.96
1000.27
999.558
998.82
998.059
997.275
996.47
995.644
994.799
993.938
993.063
992.176
991.281
990.379
989.475
988.571
987.671
986.779
985.897
985.028
984.177
983.346
982.536
981.752
980.994
980.264
979.565
978.896
978.258
977.653
977.079
976.538
976.029
975.55
975.102
974.683
974.293
973.931
973.596
973.286
973
972.739
972.499
972.281
972.083
971.904
971.745
971.603
971.479
971.37
971.278
971.201
971.138
971.089
971.054
971.031
971.021
971.023
971.036
971.059
971.093
971.137
971.19
971.252
971.322
971.399
971.484
971.576
971.674
971.778
971.886
972
972.118
972.239
972.364
972.492
972.622
972.754
972.888
973.022
973.157
973.293
973.428
973.563
973.698
973.831
973.963
974.093
974.222
974.348
974.472
974.593
974.712
974.828
974.94
975.05
975.156
975.258
975.357
975.452
975.544
975.632
975.715
975.795
975.87
975.942
976.009
976.071
976.128
976.181
976.229
976.272
976.31
976.342
976.369
976.389
976.404
976.412
976.413
976.407
976.393
976.372
976.343
976.306
976.261
976.206
976.143
976.071
975.99