# vtk DataFile Version 2.0
LBE mesh
ASCII
DATASET STRUCTURED_POINTS
DIMENSIONS 300 100 1
ASPECT_RATIO 1 1 1
ORIGIN 0 0 0
POINT_DATA 30000
SCALARS rho double 1
LOOKUP_TABLE default
1047.59
1015.99
1015.29
1021.75
1019.92
1016.03
1015.85
1016.36
1015.59
1014.8
1014.64
1014.48
1014.11
1013.81
1013.61
1013.4
1013.16
1012.94
1012.74
1012.53
1012.32
1012.11
1011.89
1011.68
1011.46
1011.24
1011.01
1010.77
1010.53
1010.28
1010.02
1009.75
1009.47
1009.18
1008.88
1008.57
1008.25
1007.91
1007.56
1007.2
1006.82
1006.43
1006.02
1005.59
1005.15
1004.69
1004.21
1003.72
1003.21
1002.68
1002.13
1001.56
1000.98
1000.37
999.754
999.117
998.463
997.794
997.111
996.414
995.705
994.984
994.254
993.515
992.77
992.021
991.268
990.514
989.761
989.011
988.265
987.526
986.795
986.075
985.366
984.671
983.991
983.327
982.681
982.054
981.447
980.86
980.295
979.751
979.23
978.732
978.257
977.805
977.376
976.97
976.587
976.226
975.888
975.571
975.276
975.001
974.748
974.514
974.299
974.104
973.926
973.766
973.623
973.497
973.386
973.29
973.209
973.143
973.09
973.049
973.021
973.004
973
973.005
973.021
973.047
973.082
973.125
973.177
973.236
973.302
973.375
973.454
973.539
973.628
973.723
973.821
973.924
974.029
974.137
974.247
974.359
974.472
974.586
974.7
974.814
974.928
975.04
975.151
975.26
975.367
975.471
975.573
975.671
975.765
975.856
975.942
976.024
976.101
976.174
976.241
976.303
976.36
976.411
976.457
976.497
976.531
976.559
976.581
976.597
976.606
976.609
976.606
976.596
976.58
976.556
976.525
976.487
976.441
976.387
976.326
976.255
976.177
976.089
975.993
975.889
975.776
975.656
975.528
975.394
975.255
975.11
974.964
974.815
974.667
974.521
974.38
974.244
974.118
974.002
973.9
973.812
973.743
973.694
973.666
973.662
973.682
973.729
973.803
973.904
974.034
974.192
974.378
974.59
974.829
975.093
975.38
975.689
976.018
976.365
976.727
977.103
977.49
977.885
978.288
978.695
979.104
979.514
979.923
980.329
980.729
981.124
981.512
981.891
982.261
982.622
982.972
983.31
983.638
983.954
984.26
984.553
984.836
985.108
985.37
985.622
985.864
986.098
986.324
986.542
986.752
986.957
987.155
987.348
987.536
987.72
987.9
988.075
988.248
988.416
988.582
988.744
988.903
989.058
989.209
989.357
989.499
989.637
989.769
989.896
990.015
990.128
990.234
990.33
990.418
990.496
990.563
990.62
990.664
990.697
990.718
990.724
990.718
990.697
990.66
990.609
990.542
990.458
990.356
990.238
990.102
989.943
989.763
989.568
989.344
989.074
988.793
988.507
988.103
987.611
987.265
986.787
985.701
984.928
985.014
982.946
978.913
980.867
981.615
957.264
1030.53
1027.01
1022.94
1017.76
1017.94
1018.11
1016.94
1015.79
1015.56
1015.31
1014.84
1014.44
1014.21
1013.96
1013.68
1013.44
1013.22
1013
1012.78
1012.56
1012.35
1012.14
1011.92
1011.7
1011.48
1011.25
1011.01
1010.78
1010.53
1010.28
1010.01
1009.74
1009.46
1009.17
1008.87
1008.55
1008.23
1007.89
1007.54
1007.17
1006.79
1006.39
1005.98
1005.55
1005.11
1004.65
1004.17
1003.68
1003.16
1002.63
1002.08
1001.51
1000.93
1000.33
999.706
999.069
998.416
997.747
997.065
996.369
995.66
994.941
994.212
993.476
992.733
991.985
991.235
990.484
989.734
988.987
988.244
987.508
986.78
986.063
985.358
984.666
983.989
983.329
982.686
982.062
981.457
980.873
980.311
979.77
979.252
978.756
978.283
977.833
977.406
977.002
976.62
976.261
975.924
975.608
975.314
975.041
974.788
974.554
974.34
974.145
973.968
973.808
973.666
973.539
973.428
973.333
973.252
973.184
973.131
973.09
973.061
973.045
973.039
973.045
973.06
973.085
973.119
973.162
973.213
973.272
973.338
973.41
973.488
973.572
973.662
973.756
973.854
973.955
974.06
974.168
974.278
974.389
974.502
974.616
974.73
974.844
974.957
975.069
975.18
975.289
975.396
975.5
975.602
975.7
975.794
975.885
975.971
976.053
976.13
976.203
976.27
976.332
976.389
976.44
976.485
976.524
976.558
976.586
976.607
976.623
976.632
976.635
976.631
976.621
976.604
976.58
976.549
976.511
976.465
976.411
976.35
976.28
976.202
976.115
976.02
975.917
975.805
975.686
975.56
975.427
975.289
975.147
975.001
974.854
974.707
974.562
974.421
974.286
974.159
974.044
973.94
973.852
973.782
973.73
973.7
973.694
973.712
973.755
973.826
973.925
974.051
974.205
974.387
974.596
974.831
975.091
975.375
975.681
976.006
976.35
976.709
977.082
977.467
977.86
978.261
978.666
979.074
979.483
979.891
980.296
980.696
981.091
981.478
981.858
982.228
982.589
982.939
983.279
983.607
983.925
984.231
984.526
984.809
985.083
985.346
985.599
985.842
986.077
986.303
986.522
986.733
986.938
987.137
987.331
987.519
987.704
987.884
988.06
988.232
988.401
988.567
988.729
988.888
989.043
989.194
989.341
989.484
989.622
989.754
989.88
990
990.113
990.218
990.315
990.402
990.48
990.548
990.605
990.65
990.683
990.703
990.71
990.702
990.681
990.644
990.592
990.523
990.438
990.336
990.215
990.074
989.915
989.733
989.523
989.294
989.04
988.734
988.387
988.042
987.612
987.021
986.465
985.963
984.9
983.514
982.936
981.662
977.269
973.265
971.131
1022.45
1027.26
1022.61
1018.32
1018.57
1018.3
1016.93
1015.99
1015.8
1015.45
1014.94
1014.56
1014.32
1014.05
1013.76
1013.51
1013.29
1013.06
1012.83
1012.61
1012.39
1012.17
1011.95
1011.73
1011.5
1011.27
1011.03
1010.79
1010.54
1010.28
1010.02
1009.75
1009.46
1009.17
1008.86
1008.55
1008.22
1007.88
1007.53
1007.16
1006.77
1006.38
1005.96
1005.54
1005.09
1004.63
1004.15
1003.65
1003.13
1002.6
1002.05
1001.48
1000.89
1000.29
999.669
999.031
998.377
997.708
997.024
996.327
995.619
994.899
994.17
993.433
992.69
991.943
991.193
990.443
989.693
988.947
988.206
987.471
986.745
986.029
985.326
984.636
983.961
983.303
982.662
982.041
981.439
980.858
980.298
979.76
979.244
978.75
978.28
977.833
977.408
977.006
976.626
976.269
975.934
975.62
975.328
975.056
974.805
974.573
974.36
974.166
973.99
973.831
973.689
973.564
973.454
973.359
973.278
973.212
973.159
973.118
973.09
973.074
973.068
973.074
973.089
973.115
973.149
973.192
973.243
973.302
973.368
973.44
973.518
973.602
973.692
973.786
973.884
973.986
974.091
974.199
974.309
974.421
974.534
974.647
974.762
974.876
974.989
975.102
975.213
975.323
975.43
975.534
975.636
975.735
975.829
975.92
976.007
976.089
976.166
976.239
976.306
976.368
976.425
976.476
976.521
976.561
976.594
976.622
976.643
976.658
976.667
976.67
976.666
976.655
976.638
976.614
976.583
976.545
976.5
976.446
976.385
976.315
976.238
976.152
976.058
975.955
975.844
975.726
975.6
975.467
975.33
975.187
975.041
974.894
974.746
974.6
974.457
974.32
974.191
974.073
973.967
973.876
973.802
973.747
973.713
973.703
973.717
973.756
973.824
973.918
974.041
974.192
974.371
974.576
974.809
975.067
975.348
975.652
975.976
976.319
976.677
977.049
977.434
977.827
978.228
978.634
979.042
979.451
979.86
980.265
980.666
981.062
981.45
981.831
982.203
982.564
982.916
983.256
983.586
983.904
984.211
984.506
984.791
985.065
985.329
985.582
985.826
986.062
986.289
986.508
986.72
986.924
987.124
987.317
987.506
987.69
987.87
988.046
988.219
988.388
988.553
988.716
988.874
989.03
989.181
989.329
989.472
989.61
989.742
989.869
989.99
990.103
990.209
990.306
990.394
990.473
990.542
990.599
990.645
990.679
990.699
990.706
990.7
990.678
990.642
990.59
990.521
990.436
990.333
990.211
990.068
989.907
989.727
989.514
989.274
989.025
988.732
988.353
987.987
987.642
987.036
986.283
985.958
985.301
983.266
982.356
983.213
978.7
972.83
976.948
1022.17
1020.92
1020.4
1021.58
1019.09
1017
1016.97
1016.9
1016
1015.3
1015.08
1014.83
1014.43
1014.1
1013.87
1013.62
1013.36
1013.12
1012.9
1012.67
1012.45
1012.22
1012
1011.77
1011.54
1011.31
1011.07
1010.82
1010.57
1010.31
1010.04
1009.77
1009.48
1009.19
1008.88
1008.56
1008.23
1007.89
1007.53
1007.16
1006.78
1006.38
1005.96
1005.53
1005.09
1004.62
1004.14
1003.64
1003.12
1002.59
1002.03
1001.46
1000.87
1000.26
999.64
999
998.343
997.671
996.985
996.285
995.573
994.851
994.12
993.38
992.635
991.886
991.134
990.382
989.631
988.883
988.141
987.406
986.68
985.964
985.261
984.572
983.898
983.242
982.603
981.983
981.383
980.804
980.247
979.712
979.199
978.709
978.241
977.797
977.375
976.976
976.6
976.245
975.913
975.602
975.313
975.044
974.795
974.566
974.356
974.164
973.99
973.833
973.693
973.569
973.461
973.367
973.289
973.224
973.172
973.133
973.106
973.09
973.086
973.092
973.109
973.135
973.17
973.214
973.266
973.325
973.392
973.465
973.544
973.629
973.719
973.814
973.912
974.015
974.12
974.229
974.34
974.452
974.566
974.68
974.795
974.91
975.025
975.138
975.25
975.36
975.467
975.573
975.675
975.774
975.87
975.961
976.048
976.131
976.209
976.282
976.35
976.412
976.469
976.52
976.565
976.605
976.638
976.666
976.687
976.702
976.711
976.713
976.709
976.699
976.682
976.658
976.627
976.589
976.543
976.49
976.429
976.36
976.283
976.198
976.103
976.001
975.89
975.771
975.645
975.512
975.373
975.229
975.081
974.931
974.781
974.631
974.485
974.344
974.211
974.088
973.977
973.88
973.801
973.741
973.702
973.686
973.696
973.731
973.794
973.885
974.004
974.152
974.329
974.532
974.764
975.021
975.302
975.606
975.93
976.273
976.632
977.006
977.392
977.787
978.189
978.597
979.007
979.418
979.829
980.236
980.64
981.037
981.427
981.81
982.183
982.546
982.898
983.24
983.571
983.89
984.198
984.494
984.78
985.054
985.318
985.572
985.816
986.051
986.278
986.497
986.708
986.913
987.112
987.306
987.494
987.678
987.858
988.034
988.206
988.375
988.541
988.704
988.863
989.019
989.171
989.319
989.462
989.601
989.735
989.863
989.985
990.099
990.206
990.305
990.394
990.475
990.544
990.603
990.651
990.686
990.708
990.716
990.711
990.691
990.655
990.604
990.536
990.451
990.348
990.228
990.088
989.925
989.741
989.541
989.305
989.029
988.752
988.443
988.012
987.565
987.217
986.607
985.648
985.165
984.724
982.718
980.988
981.016
979.966
977.933
1022.17
1020
1019.94
1019.84
1018.37
1017.97
1017.42
1016.57
1015.97
1015.69
1015.32
1014.88
1014.53
1014.27
1014
1013.72
1013.46
1013.23
1012.99
1012.76
1012.53
1012.3
1012.07
1011.84
1011.61
1011.37
1011.13
1010.88
1010.62
1010.36
1010.09
1009.81
1009.53
1009.23
1008.92
1008.6
1008.27
1007.92
1007.56
1007.19
1006.8
1006.4
1005.98
1005.55
1005.1
1004.63
1004.15
1003.64
1003.12
1002.58
1002.03
1001.45
1000.86
1000.25
999.617
998.972
998.31
997.633
996.942
996.237
995.52
994.792
994.055
993.311
992.561
991.807
991.05
990.294
989.539
988.788
988.043
987.306
986.577
985.86
985.156
984.467
983.793
983.137
982.499
981.881
981.284
980.707
980.153
979.62
979.111
978.624
978.161
977.72
977.302
976.908
976.536
976.185
975.858
975.551
975.266
975.001
974.756
974.53
974.324
974.135
973.965
973.811
973.674
973.553
973.448
973.357
973.281
973.218
973.169
973.132
973.107
973.094
973.092
973.1
973.119
973.147
973.183
973.229
973.282
973.343
973.41
973.485
973.565
973.651
973.743
973.838
973.938
974.042
974.149
974.258
974.37
974.483
974.598
974.714
974.83
974.945
975.061
975.175
975.288
975.399
975.507
975.613
975.717
975.817
975.913
976.005
976.093
976.177
976.255
976.329
976.397
976.46
976.517
976.569
976.615
976.654
976.688
976.716
976.737
976.752
976.761
976.764
976.76
976.749
976.732
976.708
976.677
976.64
976.594
976.542
976.48
976.412
976.335
976.249
976.155
976.052
975.94
975.821
975.693
975.558
975.417
975.27
975.118
974.964
974.809
974.654
974.503
974.356
974.216
974.086
973.969
973.866
973.78
973.713
973.668
973.647
973.65
973.681
973.74
973.827
973.944
974.089
974.264
974.468
974.699
974.956
975.238
975.543
975.87
976.215
976.577
976.953
977.342
977.74
978.145
978.556
978.97
979.384
979.797
980.208
980.614
981.014
981.407
981.791
982.166
982.531
982.885
983.229
983.56
983.881
984.189
984.486
984.772
985.047
985.311
985.564
985.808
986.043
986.27
986.488
986.699
986.904
987.102
987.295
987.483
987.667
987.847
988.022
988.195
988.364
988.53
988.693
988.853
989.009
989.162
989.311
989.456
989.597
989.732
989.861
989.984
990.101
990.209
990.31
990.402
990.484
990.556
990.617
990.667
990.704
990.728
990.739
990.735
990.717
990.684
990.635
990.57
990.488
990.387
990.268
990.132
989.975
989.791
989.592
989.376
989.111
988.81
988.531
988.185
987.678
987.257
986.944
986.109
985.113
985.035
984.207
981.864
981.517
981.503
979.493
1020.08
1020.11
1019.7
1018.24
1018.38
1018.24
1017.08
1016.47
1016.31
1015.9
1015.33
1014.98
1014.74
1014.43
1014.1
1013.84
1013.6
1013.35
1013.1
1012.87
1012.64
1012.4
1012.17
1011.93
1011.7
1011.46
1011.21
1010.96
1010.7
1010.44
1010.17
1009.89
1009.6
1009.3
1008.98
1008.66
1008.33
1007.98
1007.62
1007.24
1006.85
1006.45
1006.03
1005.59
1005.14
1004.66
1004.17
1003.67
1003.14
1002.6
1002.03
1001.45
1000.85
1000.23
999.599
998.947
998.277
997.593
996.893
996.18
995.456
994.72
993.975
993.223
992.464
991.703
990.939
990.176
989.415
988.659
987.908
987.166
986.434
985.714
985.007
984.316
983.642
982.986
982.348
981.731
981.136
980.562
980.01
979.482
978.976
978.493
978.034
977.599
977.187
976.797
976.43
976.086
975.764
975.463
975.183
974.923
974.683
974.463
974.262
974.078
973.912
973.764
973.631
973.515
973.413
973.327
973.254
973.195
973.15
973.116
973.095
973.085
973.085
973.097
973.118
973.148
973.187
973.235
973.291
973.354
973.424
973.5
973.582
973.67
973.763
973.86
973.962
974.067
974.175
974.286
974.399
974.513
974.629
974.746
974.863
974.98
975.096
975.211
975.325
975.437
975.547
975.654
975.758
975.859
975.957
976.05
976.139
976.223
976.302
976.377
976.446
976.51
976.568
976.62
976.666
976.707
976.741
976.769
976.791
976.806
976.815
976.818
976.814
976.804
976.787
976.763
976.733
976.695
976.65
976.597
976.536
976.467
976.389
976.303
976.208
976.104
975.991
975.87
975.739
975.601
975.456
975.305
975.149
974.989
974.828
974.667
974.508
974.354
974.206
974.068
973.943
973.832
973.739
973.665
973.613
973.585
973.584
973.61
973.664
973.748
973.863
974.007
974.181
974.385
974.617
974.876
975.16
975.468
975.798
976.147
976.512
976.893
977.286
977.688
978.098
978.512
978.93
979.349
979.765
980.18
980.589
980.992
981.387
981.774
982.152
982.519
982.874
983.219
983.552
983.873
984.183
984.48
984.766
985.041
985.304
985.558
985.801
986.036
986.261
986.479
986.69
986.894
987.091
987.284
987.472
987.655
987.835
988.011
988.183
988.353
988.519
988.683
988.844
989.002
989.156
989.306
989.453
989.595
989.732
989.864
989.989
990.108
990.219
990.322
990.416
990.501
990.576
990.641
990.693
990.733
990.76
990.774
990.774
990.759
990.73
990.684
990.622
990.544
990.449
990.335
990.201
990.054
989.884
989.683
989.469
989.248
988.965
988.631
988.352
988.019
987.448
986.983
986.749
985.93
984.823
984.615
984.14
982.707
981.748
981.549
1019.03
1019.43
1018.97
1018.33
1018.16
1017.43
1017.07
1016.83
1016.28
1015.77
1015.5
1015.22
1014.85
1014.51
1014.26
1014.01
1013.73
1013.48
1013.24
1013
1012.76
1012.52
1012.29
1012.05
1011.81
1011.57
1011.32
1011.07
1010.81
1010.54
1010.27
1009.98
1009.69
1009.39
1009.08
1008.75
1008.41
1008.06
1007.7
1007.32
1006.93
1006.52
1006.09
1005.65
1005.19
1004.72
1004.22
1003.71
1003.18
1002.62
1002.05
1001.46
1000.86
1000.23
999.585
998.923
998.244
997.549
996.839
996.116
995.38
994.633
993.877
993.114
992.345
991.573
990.8
990.027
989.257
988.493
987.735
986.987
986.248
985.523
984.813
984.119
983.443
982.786
982.148
981.532
980.938
980.367
979.819
979.294
978.793
978.316
977.862
977.433
977.027
976.644
976.284
975.946
975.63
975.336
975.063
974.811
974.578
974.364
974.169
973.991
973.832
973.689
973.563
973.452
973.356
973.275
973.207
973.153
973.112
973.084
973.067
973.061
973.066
973.081
973.106
973.14
973.183
973.233
973.292
973.358
973.431
973.51
973.594
973.684
973.779
973.879
973.982
974.089
974.199
974.311
974.426
974.541
974.658
974.776
974.894
975.012
975.129
975.246
975.36
975.473
975.584
975.692
975.797
975.899
975.997
976.091
976.181
976.266
976.346
976.422
976.492
976.556
976.616
976.669
976.716
976.757
976.792
976.821
976.843
976.859
976.869
976.872
976.869
976.859
976.842
976.819
976.788
976.75
976.705
976.652
976.59
976.521
976.443
976.356
976.259
976.154
976.038
975.914
975.78
975.638
975.488
975.332
975.17
975.003
974.835
974.666
974.5
974.337
974.181
974.034
973.9
973.781
973.68
973.599
973.54
973.506
973.499
973.521
973.572
973.654
973.766
973.91
974.085
974.29
974.524
974.785
975.073
975.384
975.718
976.071
976.442
976.827
977.225
977.632
978.047
978.467
978.889
979.312
979.733
980.15
980.563
980.97
981.368
981.758
982.137
982.506
982.864
983.21
983.544
983.866
984.175
984.473
984.759
985.034
985.297
985.55
985.793
986.026
986.252
986.469
986.679
986.882
987.079
987.271
987.459
987.642
987.821
987.998
988.171
988.341
988.509
988.674
988.836
988.995
989.151
989.303
989.452
989.596
989.736
989.87
989.998
990.12
990.234
990.341
990.438
990.527
990.606
990.673
990.729
990.773
990.805
990.823
990.827
990.817
990.792
990.752
990.696
990.622
990.534
990.429
990.304
990.161
990.006
989.828
989.614
989.397
989.176
988.873
988.534
988.286
987.926
987.319
986.96
986.711
985.797
985.031
984.84
984.017
983.144
982.82
1018.76
1018.46
1018.24
1018.38
1017.76
1017.19
1017.1
1016.68
1016.19
1015.91
1015.63
1015.25
1014.93
1014.68
1014.41
1014.13
1013.86
1013.63
1013.39
1013.14
1012.9
1012.67
1012.43
1012.19
1011.95
1011.7
1011.45
1011.2
1010.94
1010.67
1010.39
1010.11
1009.81
1009.51
1009.19
1008.86
1008.52
1008.17
1007.8
1007.42
1007.02
1006.61
1006.18
1005.74
1005.27
1004.79
1004.29
1003.77
1003.23
1002.67
1002.09
1001.49
1000.87
1000.23
999.576
998.902
998.211
997.503
996.78
996.043
995.293
994.532
993.763
992.986
992.204
991.419
990.633
989.848
989.067
988.292
987.524
986.767
986.022
985.29
984.575
983.877
983.198
982.539
981.901
981.286
980.693
980.125
979.58
979.06
978.564
978.093
977.646
977.223
976.824
976.448
976.096
975.766
975.459
975.173
974.908
974.663
974.438
974.233
974.045
973.876
973.723
973.588
973.469
973.365
973.276
973.201
973.14
973.093
973.058
973.035
973.023
973.023
973.033
973.053
973.083
973.122
973.169
973.224
973.286
973.356
973.432
973.514
973.602
973.695
973.793
973.894
974
974.108
974.22
974.334
974.45
974.567
974.685
974.804
974.922
975.041
975.159
975.276
975.391
975.504
975.615
975.724
975.83
975.932
976.03
976.125
976.216
976.301
976.383
976.459
976.53
976.595
976.655
976.709
976.758
976.8
976.836
976.865
976.889
976.906
976.917
976.921
976.918
976.909
976.893
976.87
976.839
976.801
976.756
976.703
976.64
976.57
976.491
976.402
976.304
976.196
976.078
975.95
975.812
975.665
975.51
975.348
975.179
975.006
974.83
974.653
974.478
974.306
974.141
973.986
973.843
973.716
973.606
973.518
973.453
973.414
973.402
973.42
973.468
973.548
973.66
973.804
973.98
974.187
974.423
974.688
974.979
975.296
975.634
975.993
976.368
976.759
977.162
977.575
977.995
978.42
978.847
979.274
979.699
980.121
980.538
980.947
981.348
981.74
982.122
982.493
982.852
983.199
983.534
983.856
984.166
984.464
984.749
985.023
985.286
985.539
985.781
986.014
986.238
986.454
986.663
986.866
987.063
987.255
987.442
987.626
987.805
987.983
988.157
988.328
988.497
988.664
988.828
988.989
989.147
989.302
989.453
989.601
989.743
989.88
990.012
990.137
990.255
990.365
990.467
990.56
990.643
990.715
990.776
990.825
990.861
990.884
990.894
990.89
990.871
990.837
990.789
990.725
990.644
990.548
990.438
990.306
990.157
990.002
989.824
989.602
989.388
989.185
988.874
988.527
988.321
987.986
987.372
987.032
986.822
986.107
985.386
985.1
984.681
983.812
1018.29
1018.1
1017.99
1017.8
1017.43
1017.29
1016.9
1016.46
1016.26
1015.98
1015.6
1015.3
1015.07
1014.79
1014.5
1014.25
1014.02
1013.77
1013.52
1013.28
1013.05
1012.81
1012.58
1012.34
1012.1
1011.85
1011.6
1011.35
1011.08
1010.81
1010.54
1010.25
1009.95
1009.65
1009.33
1009
1008.66
1008.3
1007.93
1007.54
1007.14
1006.73
1006.29
1005.84
1005.37
1004.88
1004.37
1003.84
1003.29
1002.72
1002.13
1001.52
1000.89
1000.24
999.573
998.884
998.178
997.455
996.716
995.963
995.197
994.419
993.633
992.84
992.041
991.24
990.439
989.639
988.844
988.056
987.277
986.509
985.755
985.016
984.294
983.591
982.908
982.247
981.609
980.994
980.403
979.837
979.296
978.781
978.291
977.826
977.386
976.971
976.58
976.213
975.87
975.55
975.251
974.975
974.719
974.484
974.268
974.071
973.893
973.732
973.589
973.462
973.351
973.255
973.174
973.107
973.054
973.014
972.986
972.97
972.965
972.971
972.988
973.014
973.049
973.094
973.146
973.206
973.274
973.348
973.428
973.514
973.606
973.702
973.802
973.907
974.015
974.125
974.239
974.354
974.471
974.589
974.708
974.828
974.947
975.066
975.184
975.3
975.416
975.529
975.64
975.748
975.854
975.956
976.054
976.149
976.24
976.326
976.407
976.484
976.555
976.621
976.682
976.737
976.786
976.83
976.867
976.897
976.923
976.941
976.953
976.958
976.956
976.948
976.933
976.91
976.88
976.842
976.797
976.743
976.681
976.609
976.529
976.438
976.338
976.227
976.105
975.974
975.832
975.68
975.52
975.351
975.176
974.995
974.811
974.627
974.443
974.263
974.089
973.926
973.775
973.639
973.523
973.428
973.357
973.313
973.297
973.312
973.359
973.437
973.549
973.694
973.872
974.081
974.321
974.589
974.885
975.207
975.55
975.914
976.295
976.691
977.1
977.518
977.944
978.373
978.805
979.237
979.666
980.092
980.512
980.924
981.328
981.722
982.105
982.477
982.837
983.185
983.52
983.843
984.153
984.45
984.735
985.009
985.271
985.522
985.763
985.995
986.218
986.434
986.643
986.845
987.042
987.233
987.421
987.605
987.786
987.964
988.139
988.313
988.484
988.652
988.819
988.983
989.144
989.301
989.456
989.607
989.753
989.894
990.03
990.159
990.281
990.396
990.503
990.6
990.688
990.765
990.832
990.887
990.929
990.959
990.976
990.979
990.968
990.942
990.902
990.849
990.78
990.694
990.597
990.486
990.354
990.206
990.06
989.886
989.667
989.475
989.29
988.981
988.673
988.505
988.159
987.651
987.385
987.076
986.501
986.076
985.672
985.022
1017.76
1017.81
1017.72
1017.38
1017.28
1017.11
1016.7
1016.48
1016.24
1015.91
1015.63
1015.4
1015.13
1014.85
1014.61
1014.38
1014.13
1013.89
1013.66
1013.43
1013.2
1012.96
1012.73
1012.49
1012.25
1012.01
1011.76
1011.5
1011.24
1010.97
1010.7
1010.41
1010.11
1009.8
1009.49
1009.15
1008.81
1008.45
1008.08
1007.69
1007.28
1006.86
1006.42
1005.96
1005.48
1004.99
1004.47
1003.93
1003.37
1002.79
1002.19
1001.57
1000.92
1000.26
999.574
998.87
998.146
997.405
996.648
995.876
995.09
994.294
993.488
992.675
991.858
991.038
990.219
989.402
988.591
987.787
986.994
986.215
985.449
984.701
983.971
983.262
982.575
981.912
981.272
980.657
980.069
979.506
978.97
978.46
977.976
977.519
977.087
976.681
976.299
975.942
975.609
975.298
975.01
974.744
974.499
974.274
974.068
973.881
973.713
973.563
973.429
973.311
973.21
973.123
973.051
972.993
972.949
972.917
972.897
972.889
972.893
972.906
972.93
972.963
973.006
973.057
973.116
973.182
973.255
973.334
973.419
973.51
973.605
973.706
973.81
973.917
974.028
974.14
974.256
974.373
974.49
974.61
974.729
974.849
974.968
975.086
975.204
975.32
975.434
975.547
975.656
975.764
975.868
975.969
976.066
976.16
976.25
976.335
976.416
976.492
976.564
976.63
976.691
976.747
976.797
976.841
976.879
976.911
976.938
976.957
976.971
976.977
976.977
976.97
976.956
976.934
976.905
976.868
976.823
976.769
976.706
976.634
976.551
976.459
976.357
976.243
976.119
975.983
975.837
975.681
975.514
975.34
975.159
974.971
974.78
974.588
974.396
974.209
974.028
973.856
973.698
973.556
973.434
973.333
973.258
973.21
973.191
973.204
973.249
973.328
973.44
973.587
973.767
973.979
974.222
974.495
974.796
975.122
975.47
975.84
976.226
976.628
977.042
977.465
977.895
978.33
978.766
979.201
979.634
980.063
980.486
980.9
981.306
981.702
982.086
982.459
982.82
983.168
983.503
983.825
984.135
984.431
984.715
984.988
985.249
985.499
985.739
985.969
986.192
986.407
986.615
986.817
987.013
987.206
987.394
987.579
987.761
987.941
988.118
988.294
988.467
988.638
988.808
988.975
989.14
989.301
989.46
989.614
989.765
989.91
990.05
990.184
990.312
990.431
990.543
990.646
990.74
990.824
990.897
990.958
991.008
991.046
991.07
991.082
991.081
991.066
991.037
990.995
990.94
990.871
990.786
990.692
990.589
990.461
990.322
990.195
990.037
989.83
989.669
989.518
989.229
988.963
988.833
988.542
988.118
987.879
987.628
987.172
986.745
986.275
1017.47
1017.47
1017.37
1017.24
1017.11
1016.82
1016.64
1016.46
1016.14
1015.89
1015.69
1015.43
1015.16
1014.94
1014.72
1014.47
1014.24
1014.02
1013.79
1013.56
1013.34
1013.11
1012.88
1012.65
1012.41
1012.17
1011.92
1011.67
1011.41
1011.14
1010.86
1010.58
1010.28
1009.97
1009.65
1009.32
1008.98
1008.61
1008.24
1007.85
1007.44
1007.01
1006.56
1006.1
1005.62
1005.11
1004.58
1004.04
1003.47
1002.87
1002.26
1001.62
1000.96
1000.28
999.581
998.858
998.115
997.354
996.576
995.782
994.975
994.156
993.329
992.494
991.654
990.813
989.973
989.137
988.307
987.487
986.678
985.883
985.106
984.347
983.609
982.893
982.201
981.535
980.894
980.28
979.693
979.134
978.603
978.099
977.622
977.173
976.75
976.354
975.983
975.637
975.314
975.015
974.738
974.484
974.25
974.036
973.842
973.667
973.51
973.369
973.246
973.14
973.049
972.972
972.91
972.862
972.827
972.804
972.794
972.795
972.807
972.83
972.862
972.903
972.953
973.012
973.077
973.15
973.23
973.315
973.406
973.502
973.602
973.707
973.815
973.926
974.039
974.154
974.271
974.39
974.509
974.628
974.748
974.867
974.986
975.103
975.22
975.335
975.447
975.558
975.665
975.77
975.872
975.971
976.066
976.158
976.246
976.329
976.408
976.483
976.554
976.619
976.68
976.735
976.785
976.83
976.869
976.902
976.929
976.95
976.965
976.973
976.975
976.969
976.956
976.936
976.908
976.872
976.827
976.774
976.711
976.638
976.555
976.461
976.357
976.241
976.114
975.975
975.825
975.664
975.494
975.314
975.127
974.934
974.737
974.538
974.34
974.146
973.959
973.782
973.618
973.471
973.344
973.239
973.16
973.109
973.089
973.1
973.146
973.225
973.339
973.487
973.67
973.885
974.133
974.409
974.715
975.045
975.399
975.773
976.165
976.572
976.99
977.418
977.853
978.291
978.731
979.17
979.606
980.037
980.461
980.878
981.284
981.681
982.066
982.439
982.8
983.147
983.481
983.803
984.111
984.406
984.689
984.96
985.219
985.467
985.706
985.936
986.157
986.371
986.579
986.78
986.977
987.17
987.359
987.546
987.73
987.911
988.091
988.269
988.446
988.621
988.794
988.966
989.134
989.3
989.463
989.622
989.778
989.928
990.074
990.213
990.346
990.472
990.589
990.699
990.799
990.89
990.97
991.039
991.097
991.144
991.178
991.2
991.21
991.206
991.191
991.163
991.122
991.072
991.008
990.93
990.848
990.76
990.646
990.527
990.428
990.292
990.116
990
989.876
989.641
989.449
989.328
989.086
988.808
988.585
988.305
988.005
987.525
1017.24
1017.18
1017.11
1017.07
1016.89
1016.7
1016.57
1016.33
1016.1
1015.92
1015.68
1015.44
1015.23
1015.02
1014.78
1014.56
1014.35
1014.14
1013.91
1013.69
1013.48
1013.25
1013.03
1012.8
1012.57
1012.33
1012.09
1011.84
1011.58
1011.31
1011.04
1010.75
1010.46
1010.15
1009.83
1009.5
1009.15
1008.79
1008.41
1008.02
1007.6
1007.17
1006.72
1006.25
1005.76
1005.25
1004.71
1004.15
1003.57
1002.97
1002.34
1001.69
1001.01
1000.31
999.592
998.849
998.085
997.302
996.501
995.683
994.852
994.008
993.155
992.295
991.431
990.566
989.703
988.844
987.993
987.153
986.327
985.516
984.725
983.954
983.206
982.483
981.786
981.116
980.474
979.861
979.277
978.722
978.196
977.7
977.232
976.792
976.379
975.993
975.634
975.299
974.989
974.703
974.439
974.196
973.975
973.773
973.592
973.429
973.283
973.155
973.044
972.948
972.868
972.803
972.752
972.714
972.69
972.677
972.677
972.688
972.71
972.742
972.783
972.834
972.892
972.959
973.033
973.113
973.2
973.292
973.39
973.491
973.597
973.706
973.819
973.933
974.05
974.168
974.288
974.407
974.527
974.647
974.767
974.885
975.003
975.119
975.233
975.345
975.456
975.563
975.667
975.769
975.867
975.962
976.054
976.142
976.227
976.307
976.383
976.455
976.523
976.586
976.645
976.699
976.748
976.792
976.831
976.865
976.893
976.914
976.93
976.94
976.943
976.94
976.929
976.91
976.884
976.849
976.806
976.753
976.691
976.618
976.535
976.441
976.335
976.218
976.089
975.947
975.795
975.631
975.457
975.274
975.082
974.885
974.684
974.48
974.278
974.079
973.887
973.706
973.538
973.387
973.257
973.15
973.069
973.017
972.996
973.008
973.054
973.134
973.25
973.401
973.586
973.805
974.057
974.338
974.647
974.982
975.341
975.719
976.115
976.526
976.949
977.381
977.819
978.26
978.702
979.144
979.581
980.014
980.44
980.857
981.264
981.66
982.045
982.418
982.777
983.123
983.456
983.775
984.081
984.375
984.655
984.924
985.181
985.428
985.665
985.893
986.113
986.326
986.533
986.735
986.932
987.126
987.316
987.505
987.69
987.875
988.058
988.24
988.421
988.6
988.777
988.953
989.127
989.298
989.465
989.63
989.791
989.947
990.099
990.244
990.383
990.515
990.64
990.756
990.864
990.962
991.05
991.129
991.196
991.253
991.298
991.332
991.354
991.364
991.363
991.352
991.328
991.295
991.256
991.204
991.14
991.08
991.015
990.923
990.837
990.776
990.674
990.544
990.479
990.4
990.23
990.106
990.027
989.859
989.649
989.469
989.276
988.849
1017.01
1016.99
1016.95
1016.85
1016.73
1016.63
1016.44
1016.24
1016.09
1015.89
1015.67
1015.48
1015.28
1015.06
1014.86
1014.66
1014.45
1014.24
1014.03
1013.82
1013.61
1013.39
1013.17
1012.95
1012.72
1012.49
1012.25
1012.01
1011.75
1011.49
1011.22
1010.93
1010.64
1010.34
1010.02
1009.69
1009.34
1008.98
1008.6
1008.2
1007.78
1007.35
1006.89
1006.42
1005.92
1005.4
1004.85
1004.28
1003.69
1003.07
1002.43
1001.76
1001.07
1000.35
999.608
998.843
998.056
997.249
996.422
995.578
994.719
993.848
992.967
992.079
991.188
990.295
989.406
988.523
987.648
986.787
985.94
985.112
984.305
983.522
982.763
982.032
981.329
980.656
980.013
979.401
978.82
978.27
977.751
977.263
976.804
976.375
975.974
975.6
975.253
974.932
974.636
974.363
974.112
973.884
973.676
973.488
973.32
973.169
973.037
972.922
972.823
972.74
972.672
972.618
972.579
972.552
972.539
972.538
972.549
972.57
972.603
972.645
972.696
972.756
972.824
972.9
972.982
973.071
973.166
973.266
973.371
973.479
973.591
973.706
973.823
973.942
974.062
974.183
974.305
974.426
974.547
974.667
974.786
974.904
975.02
975.134
975.245
975.354
975.461
975.564
975.664
975.761
975.855
975.945
976.032
976.115
976.194
976.269
976.341
976.409
976.473
976.532
976.587
976.638
976.685
976.728
976.765
976.798
976.825
976.848
976.864
976.875
976.88
976.878
976.869
976.852
976.828
976.795
976.754
976.703
976.642
976.571
976.488
976.394
976.289
976.171
976.041
975.9
975.746
975.58
975.404
975.219
975.025
974.826
974.621
974.416
974.211
974.01