# vtk DataFile Version 2.0
LBE mesh
ASCII
DATASET STRUCTURED_POINTS
DIMENSIONS 300 100 1
ASPECT_RATIO 1 1 1
ORIGIN 0 0 0
POINT_DATA 30000
SCALARS rho double 1
LOOKUP_TABLE default
1073.66
1044.42
1042.77
1047.23
1044.29
1039.74
1038.54
1037.85
1036.06
1034.35
1033.23
1032.11
1030.88
1029.77
1028.81
1027.9
1027.05
1026.3
1025.64
1025.07
1024.58
1024.2
1023.91
1023.72
1023.63
1023.62
1023.68
1023.8
1023.95
1024.1
1024.23
1024.31
1024.31
1024.22
1024.02
1023.72
1023.31
1022.81
1022.23
1021.57
1020.86
1020.1
1019.3
1018.47
1017.62
1016.74
1015.84
1014.93
1014
1013.05
1012.1
1011.14
1010.18
1009.22
1008.26
1007.32
1006.39
1005.47
1004.57
1003.69
1002.82
1001.98
1001.15
1000.35
999.568
998.811
998.081
997.377
996.704
996.061
995.454
994.882
994.349
993.856
993.407
993.001
992.641
992.327
992.061
991.84
991.666
991.534
991.446
991.398
991.39
991.42
991.492
991.606
991.768
991.982
992.252
992.585
992.984
993.451
993.986
994.586
995.247
995.96
996.715
997.501
998.308
999.123
999.936
1000.73
1001.51
1002.24
1002.92
1003.54
1004.08
1004.54
1004.91
1005.19
1005.36
1005.41
1005.32
1005.03
1004.54
1003.81
1002.85
1001.67
1000.34
998.915
997.485
996.122
994.886
993.815
992.922
992.2
991.627
991.175
990.81
990.502
990.222
989.948
989.662
989.352
989.009
988.632
988.222
987.784
987.328
986.865
986.409
985.971
985.563
985.193
984.867
984.589
984.356
984.167
984.015
983.893
983.793
983.708
983.629
983.549
983.465
983.372
983.27
983.159
983.04
982.919
982.797
982.679
982.568
982.468
982.38
982.305
982.243
982.192
982.152
982.117
982.085
982.051
982.009
981.956
981.887
981.797
981.684
981.542
981.367
981.154
980.898
980.592
980.231
979.811
979.329
978.786
978.185
977.533
976.839
976.114
975.37
974.616
973.86
973.108
972.358
971.609
970.851
970.076
969.272
968.431
967.543
966.608
965.63
964.621
963.6
962.593
961.633
960.756
959.998
959.395
958.98
958.776
958.804
959.073
959.588
960.343
961.328
962.526
963.916
965.473
967.17
968.978
970.866
972.803
974.757
976.699
978.596
980.421
982.146
983.744
985.191
986.465
987.547
988.418
989.066
989.482
989.658
989.596
989.3
988.779
988.043
987.107
985.979
984.67
983.182
981.515
979.664
977.623
975.39
972.968
970.37
967.615
964.738
961.776
958.768
955.75
952.751
949.787
946.87
944.008
941.216
938.526
935.987
933.666
931.646
930.009
928.83
928.164
928.042
928.467
929.421
930.867
932.757
935.034
937.64
940.517
943.606
946.855
950.211
953.619
957.033
960.413
963.704
966.842
969.82
972.614
975.083
977.216
979.236
980.878
981.649
982.464
983.94
983.068
980.023
982.995
984.576
960.339
1057.95
1054.09
1049.39
1043.61
1042.59
1041.57
1039.4
1037.3
1036.05
1034.79
1033.38
1032.09
1030.99
1029.92
1028.89
1027.96
1027.14
1026.38
1025.72
1025.15
1024.68
1024.3
1024.02
1023.83
1023.74
1023.72
1023.76
1023.85
1023.96
1024.07
1024.15
1024.18
1024.14
1024.01
1023.8
1023.49
1023.09
1022.61
1022.05
1021.42
1020.74
1020
1019.23
1018.42
1017.59
1016.72
1015.84
1014.93
1014.01
1013.06
1012.12
1011.16
1010.21
1009.25
1008.3
1007.36
1006.43
1005.51
1004.61
1003.73
1002.86
1002.02
1001.19
1000.39
999.607
998.847
998.119
997.414
996.744
996.101
995.497
994.925
994.396
993.905
993.46
993.055
992.7
992.388
992.127
991.909
991.74
991.612
991.53
991.487
991.487
991.526
991.607
991.73
991.902
992.122
992.4
992.735
993.134
993.596
994.124
994.711
995.356
996.049
996.783
997.547
998.33
999.123
999.912
1000.69
1001.44
1002.16
1002.83
1003.45
1004
1004.48
1004.86
1005.14
1005.3
1005.33
1005.19
1004.88
1004.38
1003.66
1002.75
1001.64
1000.4
999.064
997.707
996.393
995.178
994.103
993.187
992.429
991.817
991.325
990.923
990.584
990.279
989.985
989.686
989.368
989.024
988.649
988.246
987.82
987.377
986.928
986.485
986.058
985.657
985.292
984.966
984.684
984.446
984.248
984.085
983.952
983.841
983.745
983.656
983.568
983.478
983.382
983.279
983.169
983.053
982.934
982.816
982.701
982.593
982.495
982.407
982.332
982.269
982.216
982.172
982.133
982.096
982.057
982.01
981.953
981.879
981.785
981.667
981.52
981.339
981.121
980.859
980.55
980.189
979.772
979.297
978.765
978.179
977.545
976.869
976.16
975.429
974.683
973.929
973.17
972.409
971.643
970.867
970.074
969.258
968.411
967.532
966.619
965.677
964.719
963.759
962.822
961.934
961.125
960.427
959.873
959.489
959.3
959.326
959.577
960.059
960.77
961.701
962.838
964.163
965.653
967.281
969.021
970.841
972.712
974.604
976.487
978.33
980.106
981.788
983.349
984.768
986.021
987.089
987.957
988.612
989.043
989.244
989.214
988.956
988.475
987.779
986.878
985.781
984.494
983.023
981.367
979.526
977.499
975.286
972.892
970.33
967.619
964.787
961.866
958.892
955.896
952.908
949.95
947.04
944.197
941.443
938.809
936.341
934.097
932.147
930.563
929.412
928.746
928.598
928.976
929.869
931.246
933.063
935.267
937.803
940.612
943.64
946.829
950.127
953.486
956.853
960.177
963.423
966.544
969.475
972.188
974.701
976.9
978.688
980.261
981.655
982.222
982.243
982.945
982.745
979.245
976.063
974.641
1050.58
1054.1
1048.9
1043.92
1043.04
1041.68
1039.32
1037.42
1036.22
1034.89
1033.44
1032.18
1031.08
1029.99
1028.96
1028.04
1027.21
1026.46
1025.81
1025.25
1024.8
1024.44
1024.17
1023.99
1023.9
1023.86
1023.88
1023.93
1023.99
1024.03
1024.04
1024
1023.9
1023.73
1023.49
1023.17
1022.78
1022.31
1021.79
1021.21
1020.57
1019.88
1019.16
1018.38
1017.58
1016.74
1015.88
1014.98
1014.07
1013.14
1012.2
1011.25
1010.3
1009.35
1008.41
1007.47
1006.55
1005.63
1004.73
1003.84
1002.97
1002.11
1001.29
1000.47
999.688
998.921
998.189
997.478
996.805
996.157
995.552
994.977
994.449
993.955
993.513
993.108
992.758
992.448
992.193
991.979
991.818
991.698
991.626
991.592
991.605
991.655
991.75
991.885
992.07
992.299
992.586
992.924
993.325
993.781
994.3
994.872
995.498
996.167
996.875
997.608
998.362
999.122
999.882
1000.63
1001.36
1002.07
1002.74
1003.36
1003.93
1004.42
1004.82
1005.11
1005.27
1005.27
1005.11
1004.77
1004.24
1003.54
1002.67
1001.64
1000.48
999.244
997.971
996.719
995.537
994.466
993.53
992.738
992.083
991.545
991.102
990.724
990.387
990.068
989.751
989.421
989.072
988.699
988.303
987.887
987.459
987.026
986.598
986.184
985.794
985.434
985.111
984.827
984.582
984.375
984.201
984.055
983.93
983.819
983.718
983.62
983.521
983.418
983.311
983.2
983.084
982.967
982.852
982.74
982.634
982.538
982.452
982.377
982.313
982.258
982.211
982.168
982.126
982.081
982.029
981.966
981.886
981.787
981.663
981.51
981.323
981.1
980.834
980.523
980.163
979.752
979.287
978.77
978.203
977.589
976.934
976.245
975.527
974.788
974.033
973.266
972.488
971.7
970.899
970.085
969.254
968.405
967.54
966.66
965.772
964.886
964.015
963.177
962.392
961.683
961.075
960.592
960.259
960.097
960.123
960.352
960.789
961.436
962.289
963.338
964.565
965.953
967.477
969.112
970.831
972.603
974.401
976.194
977.956
979.658
981.275
982.783
984.158
985.381
986.432
987.296
987.961
988.415
988.653
988.669
988.465
988.041
987.402
986.555
985.503
984.254
982.811
981.178
979.357
977.35
975.163
972.801
970.278
967.612
964.827
961.948
959.009
956.038
953.065
950.118
947.222
944.404
941.693
939.123
936.734
934.577
932.709
931.19
930.078
929.422
929.253
929.587
930.416
931.718
933.453
935.575
938.03
940.762
943.717
946.839
950.073
953.372
956.689
959.964
963.155
966.244
969.161
971.823
974.294
976.581
978.379
979.763
981.351
982.408
981.831
982.223
984.305
980.807
975.906
981.165
1050.18
1048.19
1046.77
1046.75
1043.39
1040.42
1039.33
1038.18
1036.33
1034.72
1033.55
1032.39
1031.15
1030.04
1029.06
1028.15
1027.3
1026.57
1025.94
1025.41
1024.98
1024.64
1024.4
1024.23
1024.13
1024.08
1024.06
1024.05
1024.03
1023.99
1023.91
1023.78
1023.61
1023.38
1023.1
1022.76
1022.38
1021.95
1021.47
1020.93
1020.36
1019.73
1019.05
1018.33
1017.57
1016.76
1015.93
1015.06
1014.17
1013.26
1012.34
1011.4
1010.47
1009.53
1008.59
1007.66
1006.74
1005.82
1004.92
1004.02
1003.14
1002.28
1001.44
1000.61
999.818
999.04
998.298
997.576
996.895
996.238
995.627
995.045
994.514
994.017
993.574
993.17
992.823
992.517
992.27
992.063
991.912
991.801
991.743
991.721
991.749
991.813
991.926
992.074
992.275
992.516
992.813
993.157
993.559
994.011
994.521
995.076
995.682
996.322
997
997.699
998.418
999.143
999.871
1000.59
1001.3
1001.99
1002.66
1003.28
1003.87
1004.38
1004.8
1005.1
1005.25
1005.23
1005.04
1004.66
1004.12
1003.42
1002.58
1001.61
1000.56
999.425
998.255
997.084
995.954
994.901
993.955
993.131
992.43
991.842
991.347
990.923
990.546
990.196
989.854
989.507
989.149
988.775
988.384
987.98
987.568
987.153
986.744
986.347
985.971
985.621
985.302
985.018
984.768
984.551
984.364
984.203
984.062
983.935
983.817
983.704
983.593
983.481
983.367
983.251
983.134
983.017
982.903
982.794
982.692
982.599
982.515
982.441
982.376
982.319
982.269
982.222
982.175
982.125
982.067
981.997
981.912
981.807
981.677
981.517
981.325
981.096
980.827
980.514
980.156
979.751
979.298
978.797
978.249
977.657
977.025
976.354
975.65
974.918
974.16
973.382
972.584
971.772
970.945
970.109
969.264
968.417
967.572
966.735
965.914
965.117
964.356
963.64
962.983
962.4
961.907
961.52
961.258
961.138
961.175
961.383
961.772
962.345
963.103
964.04
965.144
966.4
967.789
969.288
970.87
972.511
974.183
975.858
977.51
979.114
980.644
982.078
983.396
984.575
985.601
986.456
987.13
987.611
987.89
987.962
987.823
987.47
986.904
986.124
985.132
983.933
982.53
980.928
979.131
977.147
974.985
972.655
970.172
967.551
964.812
961.981
959.081
956.139
953.187
950.253
947.374
944.583
941.918
939.416
937.119
935.067
933.304
931.877
930.831
930.206
930.034
930.331
931.099
932.322
933.969
935.999
938.364
941.009
943.88
946.926
950.091
953.322
956.572
959.803
962.951
965.969
968.86
971.567
973.966
976.135
978.191
979.763
980.747
982.014
983.142
982.516
982.091
983.394
983.687
983.056
1049.95
1047.15
1046.18
1045.1
1042.68
1041.21
1039.66
1037.86
1036.29
1035.03
1033.74
1032.42
1031.25
1030.2
1029.2
1028.27
1027.45
1026.75
1026.14
1025.64
1025.24
1024.94
1024.72
1024.56
1024.45
1024.37
1024.3
1024.22
1024.11
1023.96
1023.78
1023.56
1023.3
1023
1022.68
1022.32
1021.95
1021.53
1021.09
1020.61
1020.09
1019.52
1018.9
1018.23
1017.52
1016.76
1015.96
1015.13
1014.28
1013.39
1012.5
1011.59
1010.68
1009.76
1008.84
1007.91
1007
1006.08
1005.18
1004.27
1003.39
1002.51
1001.66
1000.82
1000.01
999.217
998.459
997.724
997.029
996.361
995.739
995.148
994.61
994.109
993.664
993.261
992.917
992.616
992.376
992.178
992.038
991.939
991.895
991.887
991.932
992.01
992.141
992.305
992.521
992.774
993.082
993.429
993.833
994.277
994.776
995.312
995.895
996.506
997.153
997.816
998.5
999.188
999.884
1000.57
1001.26
1001.93
1002.6
1003.23
1003.82
1004.35
1004.78
1005.08
1005.23
1005.19
1004.96
1004.56
1003.99
1003.29
1002.49
1001.6
1000.64
999.621
998.56
997.479
996.41
995.384
994.433
993.579
992.832
992.19
991.641
991.166
990.745
990.358
989.989
989.624
989.256
988.881
988.497
988.106
987.711
987.317
986.928
986.551
986.19
985.852
985.538
985.254
984.998
984.771
984.57
984.391
984.231
984.084
983.948
983.818
983.692
983.568
983.445
983.323
983.203
983.086
982.974
982.867
982.768
982.677
982.595
982.522
982.457
982.399
982.346
982.295
982.243
982.187
982.123
982.048
981.957
981.845
981.71
981.545
981.348
981.113
980.84
980.526
980.17
979.77
979.328
978.842
978.312
977.741
977.128
976.475
975.783
975.055
974.294
973.504
972.688
971.854
971.008
970.157
969.31
968.476
967.664
966.884
966.143
965.45
964.81
964.23
963.715
963.271
962.907
962.63
962.452
962.384
962.44
962.631
962.969
963.462
964.112
964.92
965.879
966.979
968.205
969.538
970.956
972.435
973.953
975.482
977.001
978.483
979.907
981.251
982.495
983.622
984.614
985.457
986.139
986.647
986.972
987.105
987.039
986.766
986.281
985.579
984.658
983.518
982.163
980.599
978.833
976.878
974.746
972.452
970.011
967.439
964.752
961.969
959.11
956.2
953.27
950.356
947.499
944.745
942.138
939.721
937.53
935.598
933.957
932.637
931.67
931.089
930.922
931.189
931.897
933.038
934.592
936.522
938.787
941.337
944.118
947.077
950.164
953.326
956.507
959.673
962.783
965.763
968.586
971.287
973.757
975.861
977.842
979.747
980.909
981.698
983.299
983.999
983.073
984.153
985.693
985.474
1047.84
1047.04
1045.74
1043.48
1042.6
1041.43
1039.31
1037.72
1036.57
1035.2
1033.74
1032.52
1031.45
1030.37
1029.35
1028.46
1027.69
1027
1026.42
1025.97
1025.61
1025.34
1025.14
1024.99
1024.86
1024.74
1024.61
1024.44
1024.23
1023.98
1023.69
1023.36
1023.02
1022.66
1022.29
1021.91
1021.52
1021.12
1020.7
1020.25
1019.77
1019.25
1018.68
1018.06
1017.4
1016.69
1015.94
1015.16
1014.35
1013.51
1012.66
1011.79
1010.91
1010.02
1009.12
1008.22
1007.31
1006.4
1005.5
1004.59
1003.7
1002.81
1001.95
1001.1
1000.27
999.463
998.688
997.937
997.225
996.543
995.908
995.307
994.76
994.254
993.807
993.404
993.062
992.767
992.533
992.344
992.215
992.127
992.096
992.101
992.16
992.253
992.398
992.574
992.803
993.065
993.379
993.728
994.129
994.564
995.05
995.565
996.125
996.707
997.323
997.951
998.602
999.255
999.921
1000.58
1001.25
1001.91
1002.56
1003.19
1003.79
1004.32
1004.76
1005.06
1005.19
1005.13
1004.88
1004.45
1003.87
1003.18
1002.41
1001.59
1000.72
999.813
998.861
997.875
996.873
995.883
994.935
994.057
993.268
992.574
991.97
991.443
990.976
990.552
990.154
989.771
989.394
989.018
988.642
988.265
987.888
987.516
987.149
986.792
986.448
986.121
985.814
985.529
985.267
985.029
984.812
984.615
984.434
984.267
984.109
983.96
983.817
983.679
983.545
983.417
983.293
983.174
983.062
982.957
982.861
982.772
982.692
982.62
982.556
982.496
982.441
982.386
982.329
982.269
982.199
982.119
982.023
981.906
981.766
981.596
981.394
981.156
980.88
980.565
980.21
979.815
979.38
978.906
978.391
977.835
977.238
976.597
975.913
975.188
974.424
973.625
972.8
971.955
971.101
970.252
969.419
968.615
967.852
967.141
966.491
965.908
965.394
964.952
964.58
964.278
964.044
963.882
963.793
963.784
963.864
964.044
964.333
964.743
965.28
965.948
966.746
967.671
968.712
969.854
971.083
972.376
973.715
975.077
976.44
977.782
979.083
980.324
981.485
982.549
983.502
984.328
985.014
985.549
985.921
986.117
986.126
985.937
985.539
984.921
984.079
983.009
981.713
980.197
978.473
976.554
974.459
972.205
969.809
967.287
964.652
961.919
959.105
956.231
953.331
950.443
947.619
944.911
942.371
940.043
937.964
936.159
934.646
933.443
932.566
932.04
931.887
932.13
932.781
933.842
935.299
937.126
939.284
941.731
944.415
947.283
950.283
953.37
956.489
959.584
962.629
965.597
968.398
971.007
973.513
975.792
977.639
979.401
981.22
982.264
982.895
984.325
985.447
985.555
986.22
988.062
1046.61
1046.17
1044.87
1043.35
1042.24
1040.6
1039.25
1038.01
1036.52
1035.08
1033.89
1032.76
1031.59
1030.52
1029.59
1028.75
1027.98
1027.34
1026.82
1026.4
1026.08
1025.84
1025.66
1025.51
1025.35
1025.18
1024.97
1024.71
1024.4
1024.04
1023.65
1023.23
1022.81
1022.39
1021.97
1021.56
1021.15
1020.75
1020.33
1019.9
1019.44
1018.94
1018.41
1017.83
1017.21
1016.55
1015.86
1015.13
1014.37
1013.59
1012.79
1011.97
1011.14
1010.28
1009.42
1008.54
1007.66
1006.76
1005.86
1004.96
1004.07
1003.18
1002.31
1001.45
1000.61
999.785
998.994
998.227
997.499
996.802
996.153
995.543
994.987
994.476
994.024
993.621
993.281
992.989
992.76
992.577
992.454
992.374
992.351
992.366
992.434
992.537
992.69
992.875
993.109
993.375
993.69
994.036
994.431
994.854
995.324
995.818
996.354
996.908
997.496
998.092
998.714
999.337
999.976
1000.61
1001.26
1001.9
1002.55
1003.17
1003.77
1004.29
1004.72
1005.01
1005.13
1005.05
1004.78
1004.33
1003.75
1003.07
1002.34
1001.58
1000.8
999.992
999.146
998.253
997.323
996.374
995.436
994.541
993.715
992.972
992.315
991.737
991.225
990.764
990.34
989.94
989.556
989.182
988.815
988.453
988.097
987.746
987.402
987.065
986.738
986.423
986.122
985.837
985.569
985.318
985.085
984.868
984.666
984.476
984.297
984.127
983.966
983.813
983.668
983.531
983.403
983.282
983.171
983.067
982.973
982.887
982.809
982.739
982.674
982.614
982.556
982.499
982.438
982.372
982.298
982.213
982.112
981.991
981.846
981.673
981.467
981.225
980.947
980.631
980.276
979.884
979.455
978.988
978.482
977.935
977.346
976.713
976.034
975.311
974.547
973.748
972.922
972.081
971.238
970.41
969.61
968.855
968.158
967.53
966.978
966.508
966.119
965.81
965.574
965.405
965.297
965.244
965.243
965.295
965.403
965.574
965.819
966.148
966.569
967.092
967.721
968.457
969.297
970.232
971.25
972.338
973.478
974.653
975.844
977.031
978.197
979.322
980.39
981.385
982.292
983.096
983.784
984.343
984.759
985.017
985.101
984.997
984.688
984.16
983.402
982.41
981.182
979.725
978.052
976.179
974.128
971.92
969.573
967.103
964.522
961.84
959.07
956.236
953.369
950.515
947.732
945.078
942.613
940.383
938.422
936.748
935.367
934.284
933.505
933.04
932.909
933.134
933.733
934.713
936.073
937.793
939.843
942.181
944.762
947.536
950.448
953.449
956.498
959.541
962.52
965.43
968.243
970.847
973.263
975.617
977.686
979.318
981.055
982.753
983.627
984.56
986.087
986.909
987.698
989.482
1046.03
1045
1043.96
1043.18
1041.7
1040.24
1039.2
1037.84
1036.4
1035.2
1034.05
1032.84
1031.74
1030.77
1029.88
1029.05
1028.35
1027.78
1027.31
1026.94
1026.66
1026.45
1026.28
1026.1
1025.91
1025.67
1025.38
1025.02
1024.61
1024.16
1023.68
1023.19
1022.7
1022.22
1021.76
1021.32
1020.88
1020.45
1020.02
1019.57
1019.11
1018.62
1018.1
1017.55
1016.96
1016.35
1015.7
1015.03
1014.33
1013.61
1012.87
1012.11
1011.32
1010.52
1009.7
1008.85
1008
1007.13
1006.25
1005.37
1004.48
1003.6
1002.72
1001.86
1001.01
1000.18
999.375
998.596
997.854
997.146
996.484
995.865
995.301
994.785
994.328
993.924
993.581
993.29
993.059
992.878
992.755
992.678
992.655
992.673
992.742
992.847
993.001
993.187
993.42
993.684
993.994
994.332
994.716
995.126
995.578
996.053
996.567
997.096
997.659
998.23
998.826
999.425
1000.04
1000.66
1001.29
1001.92
1002.55
1003.16
1003.74
1004.25
1004.67
1004.93
1005.03
1004.93
1004.64
1004.18
1003.6
1002.94
1002.25
1001.55
1000.86
1000.14
999.397
998.596
997.738
996.834
995.913
995.008
994.151
993.364
992.657
992.032
991.477
990.983
990.535
990.121
989.732
989.362
989.007
988.663
988.328
988
987.679
987.364
987.054
986.751
986.455
986.169
985.894
985.632
985.382
985.145
984.92
984.708
984.506
984.316
984.136
983.969
983.812
983.667
983.534
983.412
983.301
983.2
983.109
983.026
982.951
982.882
982.818
982.758
982.698
982.637
982.572
982.502
982.423
982.333
982.227
982.102
981.952
981.775
981.565
981.32
981.04
980.722
980.366
979.974
979.546
979.081
978.578
978.035
977.45
976.82
976.144
975.425
974.666
973.876
973.064
972.244
971.433
970.647
969.902
969.215
968.599
968.063
967.616
967.258
966.989
966.802
966.69
966.641
966.645
966.691
966.771
966.88
967.016
967.183
967.387
967.638
967.947
968.325
968.781
969.322
969.951
970.665
971.459
972.326
973.253
974.226
975.231
976.25
977.269
978.27
979.237
980.156
981.011
981.788
982.473
983.051
983.506
983.821
983.978
983.956
983.735
983.297
982.629
981.72
980.569
979.181
977.568
975.751
973.753
971.597
969.303
966.887
964.36
961.729
959.006
956.213
953.385
950.573
947.838
945.248
942.865
940.738
938.899
937.357
936.112
935.153
934.474
934.077
933.974
934.188
934.738
935.643
936.905
938.516
940.453
942.681
945.153
947.826
950.649
953.566
956.532
959.515
962.457
965.299
968.061
970.723
973.142
975.375
977.599
979.526
981.025
982.671
984.327
985.367
986.378
987.796
989.054
990.253
1045.23
1044.32
1043.41
1042.41
1041.2
1040.17
1038.9
1037.57
1036.46
1035.29
1034.06
1032.97
1031.99
1031.05
1030.18
1029.44
1028.83
1028.31
1027.9
1027.59
1027.35
1027.16
1026.97
1026.76
1026.51
1026.2
1025.82
1025.38
1024.88
1024.35
1023.8
1023.25
1022.71
1022.18
1021.68
1021.2
1020.72
1020.26
1019.79
1019.32
1018.83
1018.33
1017.81
1017.26
1016.7
1016.11
1015.5
1014.88
1014.23
1013.57
1012.89
1012.18
1011.45
1010.7
1009.92
1009.12
1008.31
1007.47
1006.63
1005.77
1004.9
1004.03
1003.17
1002.31
1001.46
1000.63
999.819
999.034
998.283
997.568
996.898
996.272
995.7
995.179
994.715
994.305
993.955
993.658
993.421
993.233
993.102
993.019
992.988
993
993.062
993.161
993.308
993.488
993.712
993.968
994.267
994.594
994.964
995.359
995.795
996.252
996.747
997.257
997.799
998.351
998.928
999.508
1000.11
1000.71
1001.32
1001.93
1002.55
1003.14
1003.7
1004.19
1004.58
1004.82
1004.89
1004.77
1004.46
1004
1003.42
1002.79
1002.14
1001.5
1000.88
1000.26
999.603
998.889
998.101
997.246
996.346
995.437
994.555
993.729
992.978
992.309
991.716
991.192
990.724
990.3
989.911
989.549
989.208
988.884
988.572
988.268
987.971
987.677
987.384
987.093
986.804
986.518
986.236
985.961
985.695
985.438
985.191
984.956
984.734
984.523
984.327
984.145
983.978
983.827
983.69
983.568
983.458
983.36
983.272
983.194
983.122
983.056
982.993
982.931
982.87
982.805
982.737
982.661
982.576
982.479
982.368
982.236
982.081
981.899
981.684
981.436
981.151
980.829
980.471
980.077
979.647
979.18
978.676
978.132
977.547
976.918
976.248
975.537
974.792
974.023
973.241
972.462
971.702
970.979
970.309
969.707
969.184
968.75
968.409
968.161
968.003
967.927
967.923
967.977
968.076
968.206
968.354
968.511
968.671
968.833
968.999
969.178
969.38
969.617
969.903
970.248
970.661
971.149
971.711
972.346
973.048
973.809
974.616
975.458
976.321
977.189
978.049
978.884
979.681
980.424
981.1
981.69
982.178
982.544
982.766
982.821
982.685
982.336
981.758
980.938
979.87
978.559
977.018
975.266
973.329
971.232
968.996
966.638
964.165
961.586
958.912
956.164
953.38
950.615
947.938
945.421
943.129
941.112
939.397
937.991
936.88
936.046
935.47
935.145
935.076
935.283
935.791
936.621
937.787
939.289
941.109
943.221
945.584
948.15
950.875
953.711
956.599
959.501
962.396
965.217
967.914
970.538
973.049
975.294
977.405
979.519
981.298
982.783
984.43
985.92
987.069
988.357
989.6
990.93
1044.33
1043.66
1042.81
1041.72
1040.82
1039.83
1038.59
1037.5
1036.42
1035.25
1034.17
1033.19
1032.22
1031.34
1030.58
1029.94
1029.38
1028.94
1028.61
1028.35
1028.13
1027.93
1027.72
1027.47
1027.15
1026.76
1026.3
1025.77
1025.2
1024.61
1024.01
1023.41
1022.83
1022.27
1021.73
1021.2
1020.69
1020.18
1019.67
1019.16
1018.64
1018.11
1017.57
1017.02
1016.46
1015.89
1015.3
1014.71
1014.11
1013.49
1012.85
1012.19
1011.51
1010.81
1010.08
1009.33
1008.56
1007.77
1006.96
1006.14
1005.3
1004.46
1003.62
1002.77
1001.93
1001.11
1000.3
999.517
998.765
998.047
997.373
996.743
996.163
995.634
995.16
994.739
994.376
994.066
993.812
993.61
993.463
993.364
993.318
993.315
993.361
993.448
993.579
993.747
993.957
994.201
994.485
994.8
995.155
995.538
995.958
996.403
996.882
997.38
997.908
998.447
999.01
999.578
1000.16
1000.75
1001.35
1001.95
1002.55
1003.12
1003.65
1004.11
1004.46
1004.66
1004.7
1004.55
1004.23
1003.77
1003.21
1002.6
1001.99
1001.42
1000.87
1000.32
999.755
999.122
998.403
997.596
996.72
995.811
994.91
994.051
993.262
992.554
991.928
991.378
990.894
990.465
990.08
989.73
989.406
989.104
988.817
988.539
988.266
987.994
987.72
987.441
987.158
986.872
986.585
986.299
986.017
985.742
985.475
985.22
984.977
984.749
984.537
984.343
984.168
984.011
983.872
983.751
983.644
983.551
983.468
983.395
983.327
983.264
983.202
983.141
983.076
983.008
982.934
982.851
982.758
982.653
982.532
982.392
982.23
982.039
981.818
981.563
981.273
980.946
980.583
980.184
979.749
979.278
978.771
978.225
977.64
977.016
976.354
975.66
974.941
974.208
973.473
972.754
972.065
971.423
970.843
970.339
969.92
969.591
969.356
969.213
969.156
969.177
969.263
969.402
969.576
969.772
969.972
970.166
970.342
970.496
970.625
970.737
970.838
970.942
971.063
971.216
971.417
971.677
972.004
972.403
972.874
973.414
974.017
974.674
975.372
976.101
976.845
977.59
978.321
979.023
979.681
980.276
980.788
981.195
981.474
981.598
981.541
981.278
980.79
980.06
979.081
977.855
976.395
974.718
972.852
970.821
968.648
966.351
963.935
961.411
958.786
956.086
953.352
950.644
948.034
945.599
943.406
941.505
939.919
938.648
937.672
936.963
936.491
936.24
936.209
936.415
936.883
937.642
938.713
940.104
941.807
943.798
946.047
948.506
951.127
953.87
956.686
959.516
962.332
965.125
967.818
970.371
972.864
975.241
977.348
979.352
981.363
983.078
984.558
986.128
987.606
988.831
989.975
991.373
1043.58
1042.92
1042.11
1041.25
1040.38
1039.35
1038.39
1037.41
1036.31
1035.29
1034.34
1033.39
1032.5
1031.74
1031.07
1030.5
1030.04
1029.69
1029.41
1029.19
1028.99
1028.78
1028.53
1028.21
1027.81
1027.34
1026.8
1026.2
1025.58
1024.94
1024.3
1023.67
1023.06
1022.47
1021.9
1021.33
1020.78
1020.23
1019.67
1019.12
1018.56
1018
1017.43
1016.86
1016.29
1015.72
1015.15
1014.58
1014
1013.4
1012.8
1012.18
1011.54
1010.87
1010.19
1009.48
1008.76
1008.01
1007.24
1006.46
1005.66
1004.85
1004.03
1003.21
1002.4
1001.59
1000.79
1000.02
999.268
998.553
997.876
997.242
996.653
996.112
995.623
995.185
994.8
994.469
994.192
993.966
993.795
993.674
993.605
993.581
993.606
993.673
993.786
993.937
994.131
994.36
994.63
994.933
995.276
995.648
996.059
996.496
996.967
997.459
997.979
998.512
999.068
999.629
1000.21
1000.79
1001.37
1001.96
1002.53
1003.08
1003.58
1003.99
1004.3
1004.47
1004.47
1004.29
1003.96
1003.5
1002.95
1002.38
1001.82
1001.29
1000.81
1000.34
999.852
999.292
998.637
997.876
997.026
996.122
995.206
994.32
993.497
992.755
992.101
991.531
991.037
990.606
990.229
989.893
989.591
989.313
989.052
988.801
988.554
988.305
988.049
987.784
987.509
987.225
986.934
986.639
986.344
986.053
985.769
985.495
985.236
984.993
984.769
984.565
984.384
984.224
984.085
983.966
983.865
983.777
983.701
983.634
983.571
983.511
983.45
983.388
983.32
983.246
983.164
983.072
982.968
982.851
982.718
982.566
982.391
982.19
981.959
981.695
981.396
981.063
980.693
980.288
979.848
979.372
978.862
978.316
977.736
977.123
976.48
975.815
975.135
974.453
973.783
973.139
972.537
971.991
971.513
971.115
970.803
970.581
970.448
970.402
970.435
970.538
970.699
970.902
971.133
971.375
971.611
971.825
972.006
972.145
972.238
972.284
972.291
972.27
972.237
972.209
972.205
972.243
972.337
972.499
972.737
973.054
973.448
973.913
974.442
975.023
975.645
976.292
976.95
977.603
978.233
978.822
979.348
979.786
980.111
980.294
980.308
980.126
979.724
979.085
978.199
977.065
975.693
974.101
972.314
970.358
968.255
966.022
963.668
961.199
958.628
955.981
953.304
950.66
948.128
945.785
943.7
941.919
940.464
939.33
938.488
937.902
937.534
937.359
937.369
937.578
938.011
938.702
939.678
940.958
942.541
944.41
946.537
948.885
951.404
954.046
956.775
959.545
962.295
965.014
967.697
970.259
972.685
975.065
977.312
979.319
981.261
983.153
984.797
986.311
987.794
989.147
990.333
991.581
1042.83
1042.16
1041.44
1040.74
1039.89
1039.01
1038.17
1037.22
1036.28
1035.39
1034.49
1033.64
1032.89
1032.22
1031.63
1031.17
1030.81
1030.53
1030.3
1030.1
1029.9
1029.66
1029.35
1028.96
1028.48
1027.93
1027.32
1026.67
1026
1025.33
1024.67
1024.02
1023.39
1022.77
1022.17
1021.57
1020.98
1020.39
1019.8
1019.2
1018.61
1018.01
1017.42
1016.83
1016.25
1015.67
1015.09
1014.52
1013.95
1013.37
1012.78
1012.18
1011.56
1010.92
1010.27
1009.6
1008.91
1008.2
1007.47
1006.73
1005.97
1005.2
1004.41
1003.62
1002.83
1002.04
1001.26
1000.5
999.758
999.046
998.367
997.724
997.122
996.565
996.053
995.59
995.178
994.818
994.511
994.257
994.056
993.908
993.811
993.763
993.764
993.81
993.903
994.036
994.213
994.429
994.687
994.981
995.316
995.684
996.091
996.527
996.997
997.49
998.01
998.544
999.099
999.659
1000.23
1000.81
1001.39
1001.95
1002.51
1003.02
1003.49
1003.86
1004.12
1004.24
1004.2
1003.99
1003.65
1003.18
1002.66
1002.12
1001.6
1001.14
1000.72
1000.32
999.894
999.401
998.803
998.087
997.263
996.364
995.438
994.53
993.679
992.909
992.231
991.646
991.145
990.718
990.351
990.034
989.754
989.503
989.27
989.047
988.827
988.601
988.365
988.115
987.85
987.571
987.278
986.978
986.673
986.37
986.072
985.785
985.512
985.258
985.024
984.814
984.629
984.469
984.332
984.218
984.122
984.041
983.972
983.91
983.853
983.795
983.735
983.67
983.598
983.516
983.424
983.32
983.202
983.07
982.92
982.751
982.56
982.344
982.099
981.823
981.514
981.171
980.794
980.382
979.938
979.461
978.953
978.415
977.848
977.256
976.645
976.023
975.398
974.784
974.192
973.638
973.134
972.692
972.323
972.034
971.829
971.708
971.672
971.713
971.824
971.995
972.213
972.464
972.732
973
973.253
973.473
973.646
973.762
973.812
973.795
973.714
973.578
973.402
973.205
973.009
972.836
972.707
972.639
972.648
972.742
972.924
973.195
973.549
973.977
974.468
975.01
975.586
976.179
976.772
977.343
977.87
978.327
978.686
978.918
978.993
978.884
978.564
978.015
977.222
976.184
974.907
973.408
971.709
969.836
967.811
965.648
963.358
960.949
958.436
955.848
953.234
950.665
948.221
945.98
944.011
942.358
941.037
940.039
939.329
938.864
938.598
938.5
938.554
938.768
939.17
939.795
940.678
941.846
943.306
945.051
947.054
949.281
951.695
954.241
956.873
959.564
962.267
964.925
967.543
970.117
972.559
974.875
977.15
979.29
981.224
983.091
984.887
986.481
987.92
989.315
990.526
991.669
1041.98
1041.43
1040.81
1040.15
1039.44
1038.73
1037.92
1037.1
1036.32
1035.51
1034.71
1033.99
1033.35
1032.77
1032.31
1031.95
1031.67
1031.45
1031.27
1031.08
1030.85
1030.55
1030.17
1029.7
1029.15
1028.53
1027.86
1027.17
1026.47
1025.78
1025.1
1024.44
1023.79
1023.16
1022.53
1021.91
1021.29
1020.67
1020.05
1019.42
1018.8
1018.18
1017.56
1016.95
1016.35
1015.76
1015.17
1014.59
1014.01
1013.43
1012.84
1012.24
1011.63
1011.01
1010.38
1009.73
1009.06
1008.38
1007.69
1006.98
1006.25
1005.51
1004.75
1003.99
1003.22
1002.45
1001.69
1000.94
1000.2
999.489
998.802
998.146
997.525
996.943
996.403
995.908
995.463
995.069
994.729
994.443
994.212
994.034
993.91
993.837
993.814
993.839
993.913
994.03
994.194
994.4
994.65
994.94
995.274
995.644
996.054
996.497
996.974
997.475
998.002
998.545
999.104
999.669
1000.24
1000.82
1001.39
1001.94
1002.48
1002.96
1003.39
1003.71
1003.92
1003.99
1003.9
1003.67
1003.3
1002.85
1002.35
1001.84
1001.37
1000.96
1000.59
1000.25
999.889
999.454
998.907
998.231
997.431
996.541
995.608
994.683
993.809
993.016
992.32
991.723
991.221
990.8
990.447
990.15
989.895
989.671
989.467
989.273
989.079
988.878
988.663
988.43
988.177
987.905
987.615
987.313
987.004
986.693
986.386
986.09
985.809
985.547
985.308
985.095
984.909
984.75
984.617
984.507
984.417
984.343
984.281
984.224
984.171
984.115
984.054
983.985
983.905
983.814
983.708
983.588
983.453
983.301
983.131
982.941
982.73
982.494
982.232
981.94