# vtk DataFile Version 2.0
LBE mesh
ASCII
DATASET STRUCTURED_POINTS
DIMENSIONS 300 100 1
ASPECT_RATIO 1 1 1
ORIGIN 0 0 0
POINT_DATA 30000
SCALARS rho double 1
LOOKUP_TABLE default
1046.38
1014.63
1013.92
1020.41
1018.58
1014.67
1014.48
1014.99
1014.23
1013.43
1013.27
1013.11
1012.75
1012.45
1012.26
1012.05
1011.81
1011.6
1011.4
1011.2
1010.99
1010.78
1010.58
1010.37
1010.16
1009.94
1009.72
1009.48
1009.25
1009
1008.75
1008.48
1008.21
1007.92
1007.63
1007.32
1007
1006.66
1006.31
1005.95
1005.57
1005.18
1004.77
1004.34
1003.9
1003.44
1002.96
1002.47
1001.95
1001.42
1000.87
1000.31
999.721
999.12
998.502
997.868
997.218
996.554
995.877
995.186
994.486
993.775
993.057
992.331
991.601
990.867
990.132
989.397
988.664
987.935
987.212
986.497
985.791
985.095
984.413
983.744
983.09
982.453
981.833
981.232
980.65
980.088
979.546
979.025
978.525
978.046
977.588
977.151
976.734
976.338
975.962
975.606
975.269
974.95
974.65
974.367
974.102
973.852
973.618
973.4
973.196
973.006
972.83
972.666
972.514
972.374
972.245
972.127
972.019
971.921
971.832
971.752
971.68
971.616
971.56
971.511
971.468
971.433
971.403
971.38
971.362
971.349
971.341
971.338
971.34
971.345
971.355
971.368
971.385
971.405
971.427
971.453
971.482
971.512
971.546
971.581
971.619
971.658
971.7
971.742
971.787
971.834
971.882
971.932
971.984
972.038
972.094
972.153
972.214
972.278
972.346
972.417
972.492
972.571
972.655
972.745
972.841
972.943
973.053
973.17
973.295
973.429
973.573
973.727
973.891
974.065
974.251
974.448
974.657
974.877
975.109
975.353
975.608
975.874
976.15
976.436
976.732
977.037
977.35
977.669
977.995
978.327
978.662
979.002
979.343
979.686
980.028
980.37
980.71
981.046
981.379
981.707
982.029
982.344
982.652
982.952
983.242
983.523
983.795
984.055
984.305
984.543
984.77
984.985
985.188
985.379
985.557
985.722
985.875
986.016
986.144
986.259
986.362
986.452
986.53
986.595
986.647
986.686
986.713
986.726
986.726
986.712
986.684
986.641
986.584
986.511
986.424
986.32
986.199
986.063
985.909
985.738
985.551
985.346
985.125
984.887
984.632
984.363
984.078
983.78
983.469
983.147
982.814
982.473
982.125
981.772
981.415
981.059
980.703
980.351
980.004
979.666
979.339
979.024
978.725
978.442
978.179
977.937
977.716
977.521
977.35
977.205
977.087
976.996
976.932
976.895
976.885
976.901
976.941
977.004
977.088
977.192
977.313
977.448
977.595
977.75
977.91
978.071
978.229
978.381
978.523
978.646
978.749
978.835
978.885
978.88
978.855
978.809
978.629
978.351
978.2
977.893
976.981
976.38
976.592
974.678
970.91
973.008
973.851
950.317
1029.25
1025.69
1021.6
1016.4
1016.59
1016.75
1015.58
1014.42
1014.19
1013.95
1013.47
1013.08
1012.85
1012.61
1012.33
1012.09
1011.88
1011.66
1011.44
1011.23
1011.02
1010.81
1010.6
1010.39
1010.17
1009.95
1009.72
1009.49
1009.25
1009
1008.74
1008.47
1008.2
1007.91
1007.61
1007.3
1006.97
1006.64
1006.29
1005.92
1005.54
1005.15
1004.73
1004.31
1003.86
1003.4
1002.92
1002.42
1001.91
1001.38
1000.83
1000.26
999.674
999.072
998.454
997.82
997.171
996.507
995.831
995.142
994.442
993.733
993.016
992.293
991.564
990.833
990.1
989.368
988.638
987.912
987.192
986.48
985.777
985.085
984.406
983.74
983.09
982.456
981.839
981.241
980.662
980.103
979.564
979.045
978.547
978.07
977.614
977.179
976.764
976.37
975.995
975.641
975.305
974.987
974.688
974.406
974.141
973.893
973.66
973.442
973.238
973.049
972.872
972.709
972.557
972.418
972.289
972.171
972.064
971.966
971.877
971.797
971.725
971.661
971.605
971.556
971.514
971.478
971.449
971.425
971.407
971.395
971.387
971.384
971.386
971.391
971.4
971.414
971.43
971.45
971.472
971.498
971.526
971.557
971.59
971.625
971.662
971.701
971.742
971.784
971.828
971.874
971.922
971.971
972.023
972.076
972.132
972.19
972.25
972.313
972.38
972.45
972.524
972.603
972.686
972.775
972.87
972.971
973.08
973.196
973.32
973.453
973.596
973.748
973.91
974.083
974.268
974.463
974.67
974.889
975.119
975.361
975.614
975.877
976.152
976.437
976.731
977.034
977.344
977.663
977.987
978.316
978.651
978.988
979.328
979.67
980.011
980.352
980.69
981.026
981.358
981.685
982.007
982.322
982.629
982.929
983.219
983.501
983.772
984.033
984.282
984.521
984.748
984.963
985.167
985.358
985.536
985.702
985.855
985.996
986.125
986.241
986.344
986.435
986.513
986.578
986.631
986.671
986.698
986.711
986.712
986.699
986.672
986.63
986.574
986.503
986.417
986.315
986.196
986.062
985.91
985.742
985.556
985.354
985.136
984.9
984.649
984.381
984.1
983.804
983.495
983.175
982.844
982.505
982.159
981.807
981.452
981.096
980.741
980.389
980.043
979.705
979.377
979.061
978.76
978.476
978.21
977.965
977.743
977.544
977.37
977.221
977.1
977.005
976.937
976.896
976.882
976.893
976.928
976.987
977.067
977.166
977.282
977.412
977.554
977.704
977.859
978.016
978.169
978.316
978.451
978.573
978.672
978.742
978.787
978.799
978.748
978.647
978.529
978.31
977.921
977.55
977.212
976.317
975.108
974.672
973.565
969.46
965.708
963.72
1021.13
1025.95
1021.28
1016.97
1017.22
1016.95
1015.57
1014.62
1014.43
1014.09
1013.57
1013.2
1012.96
1012.69
1012.41
1012.16
1011.94
1011.72
1011.49
1011.28
1011.06
1010.85
1010.63
1010.42
1010.2
1009.97
1009.74
1009.5
1009.26
1009.01
1008.75
1008.48
1008.2
1007.91
1007.61
1007.29
1006.97
1006.63
1006.28
1005.91
1005.53
1005.13
1004.72
1004.29
1003.84
1003.38
1002.89
1002.4
1001.88
1001.35
1000.79
1000.23
999.64
999.037
998.418
997.783
997.133
996.469
995.791
995.102
994.402
993.693
992.976
992.252
991.524
990.792
990.06
989.329
988.6
987.875
987.156
986.446
985.744
985.054
984.377
983.714
983.066
982.434
981.82
981.225
980.648
980.091
979.555
979.039
978.544
978.07
977.616
977.183
976.771
976.379
976.006
975.653
975.319
975.004
974.706
974.426
974.162
973.915
973.683
973.466
973.264
973.075
972.9
972.737
972.586
972.448
972.32
972.202
972.095
971.997
971.909
971.83
971.758
971.695
971.639
971.59
971.548
971.514
971.485
971.461
971.444
971.431
971.424
971.421
971.423
971.429
971.438
971.451
971.468
971.488
971.51
971.536
971.564
971.594
971.627
971.662
971.699
971.737
971.778
971.82
971.864
971.909
971.956
972.005
972.055
972.108
972.163
972.22
972.279
972.341
972.407
972.476
972.549
972.627
972.709
972.797
972.89
972.99
973.097
973.212
973.334
973.465
973.606
973.757
973.917
974.089
974.272
974.465
974.671
974.888
975.116
975.356
975.607
975.87
976.143
976.426
976.719
977.021
977.331
977.648
977.972
978.3
978.634
978.972
979.311
979.652
979.993
980.334
980.673
981.008
981.341
981.668
981.99
982.305
982.613
982.913
983.204
983.486
983.758
984.019
984.269
984.509
984.736
984.952
985.156
985.347
985.526
985.693
985.847
985.988
986.117
986.233
986.337
986.428
986.506
986.572
986.626
986.666
986.694
986.709
986.71
986.699
986.673
986.633
986.579
986.509
986.425
986.325
986.208
986.076
985.926
985.76
985.577
985.378
985.161
984.928
984.678
984.413
984.133
983.839
983.531
983.212
982.882
982.543
982.196
981.844
981.488
981.131
980.774
980.421
980.072
979.731
979.4
979.081
978.777
978.489
978.22
977.971
977.745
977.542
977.364
977.211
977.086
976.987
976.915
976.871
976.853
976.86
976.893
976.948
977.025
977.121
977.235
977.363
977.503
977.651
977.804
977.959
978.112
978.257
978.39
978.511
978.613
978.68
978.716
978.736
978.699
978.566
978.433
978.299
977.893
977.333
977.173
976.665
974.823
974.081
975.023
970.786
965.248
969.365
1020.85
1019.58
1019.05
1020.25
1017.74
1015.65
1015.61
1015.54
1014.64
1013.94
1013.72
1013.47
1013.07
1012.75
1012.52
1012.27
1012.02
1011.78
1011.56
1011.34
1011.12
1010.9
1010.68
1010.46
1010.24
1010.01
1009.78
1009.54
1009.29
1009.04
1008.77
1008.5
1008.22
1007.93
1007.62
1007.31
1006.98
1006.64
1006.29
1005.92
1005.53
1005.13
1004.72
1004.28
1003.84
1003.37
1002.89
1002.39
1001.87
1001.33
1000.78
1000.21
999.618
999.013
998.391
997.753
997.1
996.433
995.753
995.061
994.359
993.647
992.927
992.201
991.471
990.738
990.003
989.271
988.54
987.815
987.096
986.385
985.684
984.994
984.318
983.655
983.009
982.379
981.767
981.174
980.6
980.046
979.512
978.999
978.507
978.036
977.586
977.156
976.747
976.358
975.988
975.638
975.307
974.994
974.699
974.421
974.16
973.914
973.685
973.47
973.269
973.082
972.908
972.747
972.597
972.46
972.333
972.216
972.11
972.013
971.926
971.847
971.776
971.713
971.658
971.61
971.569
971.534
971.506
971.483
971.466
971.454
971.447
971.445
971.447
971.453
971.463
971.477
971.494
971.514
971.537
971.562
971.591
971.621
971.654
971.689
971.725
971.764
971.804
971.846
971.89
971.935
971.981
972.029
972.079
972.131
972.185
972.241
972.3
972.361
972.425
972.493
972.565
972.641
972.721
972.807
972.899
972.998
973.103
973.215
973.336
973.465
973.604
973.753
973.912
974.082
974.263
974.455
974.659
974.874
975.101
975.34
975.591
975.852
976.124
976.407
976.7
977.001
977.311
977.628
977.952
978.281
978.615
978.953
979.293
979.634
979.976
980.318
980.657
980.994
981.327
981.655
981.978
982.294
982.603
982.904
983.196
983.479
983.752
984.014
984.265
984.506
984.734
984.95
985.155
985.347
985.526
985.694
985.849
985.99
986.119
986.236
986.34
986.432
986.511
986.577
986.632
986.673
986.702
986.718
986.721
986.71
986.686
986.647
986.595
986.528
986.446
986.348
986.234
986.103
985.956
985.793
985.612
985.414
985.199
984.968
984.72
984.455
984.176
983.882
983.574
983.254
982.923
982.582
982.234
981.879
981.521
981.16
980.8
980.442
980.089
979.744
979.408
979.084
978.775
978.482
978.208
977.954
977.723
977.515
977.332
977.175
977.045
976.943
976.868
976.82
976.799
976.805
976.835
976.889
976.964
977.06
977.173
977.301
977.441
977.591
977.745
977.901
978.054
978.203
978.341
978.459
978.561
978.643
978.684
978.679
978.661
978.596
978.398
978.168
978.014
977.587
976.806
976.475
976.177
974.363
972.8
972.984
972.161
970.383
1020.84
1018.66
1018.6
1018.5
1017.03
1016.62
1016.06
1015.22
1014.62
1014.33
1013.96
1013.52
1013.18
1012.92
1012.65
1012.37
1012.12
1011.89
1011.66
1011.43
1011.21
1010.98
1010.76
1010.53
1010.31
1010.07
1009.84
1009.59
1009.35
1009.09
1008.82
1008.55
1008.27
1007.97
1007.67
1007.35
1007.02
1006.68
1006.32
1005.95
1005.56
1005.16
1004.74
1004.3
1003.85
1003.38
1002.9
1002.39
1001.87
1001.33
1000.77
1000.2
999.607
998.996
998.37
997.727
997.07
996.397
995.713
995.015
994.307
993.59
992.865
992.134
991.399
990.662
989.924
989.187
988.453
987.724
987.003
986.289
985.587
984.896
984.219
983.557
982.911
982.283
981.673
981.082
980.511
979.959
979.429
978.92
978.431
977.964
977.518
977.092
976.687
976.302
975.937
975.591
975.264
974.955
974.663
974.388
974.13
973.888
973.661
973.449
973.251
973.066
972.894
972.734
972.587
972.45
972.325
972.21
972.105
972.009
971.922
971.844
971.774
971.712
971.658
971.611
971.57
971.536
971.508
971.486
971.47
971.459
971.452
971.451
971.453
971.46
971.47
971.485
971.502
971.523
971.546
971.573
971.601
971.632
971.666
971.701
971.738
971.776
971.817
971.859
971.902
971.947
971.993
972.041
972.091
972.142
972.195
972.25
972.308
972.368
972.432
972.498
972.569
972.643
972.722
972.807
972.897
972.994
973.097
973.208
973.327
973.454
973.592
973.739
973.896
974.064
974.243
974.434
974.637
974.852
975.078
975.316
975.566
975.827
976.099
976.382
976.675
976.976
977.287
977.605
977.93
978.26
978.595
978.934
979.275
979.618
979.961
980.304
980.645
980.984
981.318
981.648
981.972
982.29
982.6
982.903
983.196
983.48
983.754
984.018
984.27
984.511
984.741
984.958
985.163
985.356
985.536
985.704
985.859
986.002
986.131
986.249
986.353
986.446
986.525
986.593
986.648
986.69
986.72
986.737
986.741
986.732
986.71
986.673
986.623
986.558
986.478
986.382
986.271
986.143
985.998
985.836
985.658
985.461
985.248
985.017
984.77
984.506
984.226
983.931
983.622
983.299
982.966
982.622
982.27
981.91
981.547
981.181
980.815
980.451
980.093
979.741
979.399
979.069
978.753
978.454
978.173
977.914
977.677
977.463
977.276
977.115
976.981
976.875
976.797
976.747
976.725
976.728
976.758
976.812
976.888
976.984
977.099
977.229
977.371
977.523
977.681
977.842
977.999
978.151
978.295
978.422
978.525
978.61
978.673
978.677
978.637
978.603
978.485
978.193
977.968
977.825
977.161
976.333
976.381
975.711
973.589
973.424
973.639
971.985
1018.74
1018.78
1018.37
1016.9
1017.04
1016.9
1015.73
1015.12
1014.96
1014.55
1013.98
1013.63
1013.4
1013.09
1012.76
1012.5
1012.27
1012.02
1011.78
1011.55
1011.32
1011.09
1010.86
1010.63
1010.4
1010.17
1009.93
1009.68
1009.43
1009.17
1008.9
1008.63
1008.34
1008.04
1007.74
1007.42
1007.08
1006.74
1006.38
1006
1005.61
1005.21
1004.79
1004.35
1003.89
1003.42
1002.93
1002.42
1001.89
1001.35
1000.78
1000.2
999.604
998.987
998.354
997.704
997.039
996.359
995.667
994.962
994.246
993.52
992.788
992.049
991.307
990.562
989.817
989.074
988.334
987.6
986.874
986.157
985.451
984.758
984.079
983.416
982.77
982.142
981.534
980.944
980.376
979.828
979.301
978.796
978.312
977.85
977.408
976.988
976.588
976.208
975.849
975.508
975.186
974.881
974.594
974.324
974.071
973.832
973.609
973.4
973.205
973.023
972.854
972.697
972.551
972.417
972.293
972.179
972.075
971.981
971.895
971.818
971.749
971.688
971.634
971.587
971.547
971.513
971.486
971.465
971.449
971.438
971.432
971.431
971.435
971.442
971.453
971.469
971.487
971.508
971.533
971.56
971.59
971.622
971.656
971.692
971.73
971.769
971.811
971.853
971.897
971.942
971.989
972.037
972.087
972.138
972.191
972.246
972.303
972.363
972.425
972.491
972.56
972.634
972.712
972.795
972.884
972.979
973.081
973.19
973.307
973.434
973.57
973.715
973.871
974.038
974.217
974.407
974.609
974.823
975.049
975.287
975.537
975.799
976.072
976.355
976.649
976.951
977.263
977.582
977.909
978.24
978.577
978.918
979.261
979.606
979.951
980.296
980.639
980.979
981.315
981.647
981.973
982.292
982.605
982.908
983.204
983.489
983.764
984.029
984.283
984.525
984.756
984.974
985.18
985.374
985.555
985.723
985.879
986.022
986.153
986.271
986.376
986.469
986.549
986.617
986.673
986.717
986.747
986.766
986.772
986.764
986.744
986.709
986.661
986.598
986.52
986.426
986.317
986.191
986.049
985.889
985.712
985.517
985.304
985.074
984.826
984.561
984.28
983.983
983.671
983.345
983.007
982.658
982.3
981.935
981.565
981.193
980.82
980.448
980.082
979.722
979.372
979.035
978.712
978.406
978.118
977.852
977.609
977.391
977.198
977.033
976.896
976.787
976.706
976.655
976.631
976.635
976.665
976.719
976.797
976.896
977.014
977.147
977.294
977.451
977.613
977.779
977.945
978.103
978.251
978.39
978.508
978.592
978.658
978.706
978.681
978.591
978.538
978.411
978.034
977.742
977.66
977.001
976.053
975.987
975.7
974.506
973.846
974.048
1017.69
1018.09
1017.63
1016.99
1016.81
1016.08
1015.72
1015.49
1014.94
1014.42
1014.15
1013.88
1013.51
1013.18
1012.93
1012.68
1012.41
1012.15
1011.92
1011.69
1011.45
1011.22
1010.99
1010.76
1010.52
1010.29
1010.04
1009.8
1009.54
1009.28
1009.01
1008.73
1008.44
1008.14
1007.83
1007.51
1007.17
1006.82
1006.46
1006.08
1005.69
1005.28
1004.86
1004.41
1003.95
1003.48
1002.98
1002.46
1001.93
1001.38
1000.81
1000.22
999.611
998.986
998.343
997.684
997.009
996.319
995.615
994.9
994.173
993.437
992.694
991.945
991.192
990.437
989.682
988.93
988.182
987.441
986.708
985.985
985.275
984.578
983.896
983.231
982.584
981.956
981.349
980.761
980.195
979.651
979.128
978.628
978.149
977.693
977.257
976.843
976.45
976.076
975.723
975.388
975.072
974.774
974.493
974.229
973.98
973.747
973.528
973.323
973.132
972.953
972.787
972.632
972.49
972.357
972.235
972.123
972.02
971.927
971.842
971.766
971.697
971.636
971.583
971.536
971.497
971.463
971.436
971.415
971.399
971.389
971.384
971.383
971.387
971.395
971.407
971.423
971.443
971.466
971.491
971.52
971.551
971.584
971.62
971.658
971.697
971.738
971.78
971.824
971.87
971.916
971.964
972.013
972.063
972.116
972.169
972.225
972.282
972.342
972.404
972.47
972.539
972.612
972.689
972.772
972.86
972.955
973.056
973.164
973.281
973.406
973.541
973.686
973.842
974.009
974.187
974.377
974.579
974.793
975.02
975.258
975.509
975.772
976.046
976.33
976.625
976.93
977.243
977.565
977.893
978.227
978.565
978.908
979.253
979.6
979.947
980.294
980.639
980.981
981.319
981.653
981.981
982.302
982.616
982.922
983.218
983.505
983.782
984.048
984.303
984.547
984.779
984.998
985.205
985.4
985.582
985.751
985.907
986.051
986.182
986.301
986.407
986.5
986.582
986.651
986.707
986.751
986.783
986.803
986.81
986.805
986.785
986.753
986.706
986.646
986.57
986.479
986.371
986.248
986.107
985.948
985.772
985.578
985.365
985.134
984.885
984.619
984.335
984.034
983.718
983.388
983.045
982.69
982.325
981.952
981.575
981.194
980.812
980.432
980.057
979.688
979.33
978.984
978.653
978.339
978.045
977.772
977.523
977.299
977.102
976.933
976.792
976.681
976.599
976.546
976.522
976.526
976.557
976.614
976.695
976.797
976.919
977.058
977.21
977.373
977.543
977.716
977.889
978.059
978.216
978.36
978.494
978.6
978.666
978.718
978.751
978.687
978.572
978.524
978.347
977.914
977.706
977.596
976.845
976.244
976.24
975.663
975.119
975.269
1017.42
1017.12
1016.9
1017.04
1016.41
1015.84
1015.76
1015.34
1014.84
1014.56
1014.29
1013.92
1013.59
1013.35
1013.09
1012.8
1012.54
1012.31
1012.07
1011.83
1011.6
1011.37
1011.14
1010.9
1010.67
1010.43
1010.18
1009.93
1009.68
1009.41
1009.14
1008.86
1008.57
1008.27
1007.95
1007.63
1007.29
1006.94
1006.57
1006.19
1005.79
1005.38
1004.95
1004.5
1004.04
1003.55
1003.05
1002.53
1001.98
1001.42
1000.84
1000.25
999.628
998.992
998.338
997.666
996.979
996.276
995.559
994.83
994.09
993.34
992.584
991.821
991.055
990.287
989.521
988.757
987.998
987.247
986.506
985.775
985.058
984.356
983.67
983.003
982.354
981.726
981.119
980.533
979.97
979.43
978.912
978.417
977.944
977.494
977.065
976.658
976.272
975.906
975.56
975.233
974.924
974.634
974.359
974.101
973.859
973.631
973.417
973.218
973.031
972.856
972.694
972.542
972.401
972.271
972.151
972.041
971.939
971.847
971.762
971.686
971.618
971.557
971.503
971.457
971.417
971.383
971.356
971.335
971.319
971.308
971.303
971.302
971.307
971.315
971.328
971.345
971.366
971.39
971.417
971.447
971.48
971.515
971.553
971.592
971.634
971.677
971.722
971.768
971.816
971.865
971.915
971.966
972.018
972.072
972.128
972.185
972.244
972.305
972.369
972.435
972.505
972.579
972.657
972.74
972.829
972.923
973.024
973.133
973.25
973.375
973.511
973.656
973.812
973.979
974.158
974.349
974.552
974.767
974.995
975.235
975.487
975.751
976.027
976.313
976.61
976.917
977.232
977.556
977.886
978.221
978.562
978.907
979.254
979.603
979.952
980.301
980.648
980.992
981.332
981.667
981.997
982.32
982.635
982.942
983.24
983.529
983.807
984.074
984.331
984.575
984.808
985.028
985.236
985.432
985.615
985.784
985.942
986.086
986.218
986.338
986.444
986.539
986.621
986.69
986.748
986.793
986.826
986.847
986.855
986.851
986.834
986.803
986.758
986.699
986.625
986.536
986.43
986.308
986.169
986.011
985.836
985.642
985.428
985.196
984.946
984.676
984.389
984.084
983.763
983.427
983.077
982.715
982.342
981.961
981.574
981.184
980.793
980.403
980.019
979.641
979.273
978.918
978.579
978.257
977.956
977.676
977.421
977.192
976.991
976.817
976.674
976.56
976.477
976.423
976.4
976.405
976.438
976.498
976.582
976.69
976.817
976.962
977.121
977.291
977.47
977.653
977.834
978.014
978.187
978.343
978.482
978.611
978.708
978.753
978.792
978.821
978.726
978.578
978.546
978.37
977.91
977.708
977.642
977.097
976.585
976.544
976.455
976.117
1016.96
1016.76
1016.65
1016.46
1016.08
1015.95
1015.56
1015.13
1014.93
1014.65
1014.26
1013.97
1013.74
1013.47
1013.18
1012.93
1012.7
1012.46
1012.22
1011.99
1011.76
1011.53
1011.29
1011.06
1010.83
1010.59
1010.34
1010.09
1009.83
1009.57
1009.29
1009.01
1008.72
1008.41
1008.1
1007.77
1007.43
1007.08
1006.71
1006.32
1005.92
1005.5
1005.06
1004.61
1004.14
1003.65
1003.14
1002.61
1002.05
1001.48
1000.89
1000.28
999.654
999.005
998.337
997.652
996.949
996.231
995.499
994.754
993.997
993.231
992.458
991.679
990.897
990.114
989.333
988.555
987.784
987.021
986.269
985.529
984.804
984.095
983.404
982.733
982.082
981.453
980.846
980.263
979.703
979.166
978.654
978.164
977.699
977.255
976.835
976.436
976.059
975.701
975.364
975.045
974.745
974.462
974.196
973.945
973.709
973.488
973.28
973.086
972.904
972.734
972.575
972.427
972.289
972.161
972.043
971.933
971.833
971.741
971.657
971.581
971.512
971.451
971.396
971.348
971.308
971.273
971.245
971.223
971.206
971.194
971.189
971.188
971.192
971.201
971.214
971.231
971.253
971.278
971.306
971.338
971.373
971.41
971.451
971.493
971.537
971.584
971.632
971.681
971.732
971.785
971.838
971.893
971.949
972.006
972.065
972.125
972.187
972.251
972.317
972.386
972.459
972.535
972.615
972.7
972.79
972.886
972.989
973.1
973.218
973.346
973.482
973.629
973.787
973.956
974.136
974.328
974.533
974.75
974.98
975.222
975.476
975.742
976.02
976.309
976.607
976.916
977.234
977.559
977.891
978.229
978.572
978.918
979.267
979.618
979.968
980.319
980.667
981.013
981.354
981.691
982.022
982.346
982.662
982.97
983.269
983.559
983.837
984.106
984.363
984.608
984.842
985.063
985.272
985.468
985.652
985.823
985.981
986.126
986.259
986.379
986.486
986.581
986.664
986.735
986.793
986.839
986.873
986.895
986.905
986.901
986.885
986.856
986.813
986.755
986.683
986.595
986.491
986.37
986.231
986.075
985.899
985.704
985.49
985.257
985.003
984.731
984.439
984.129
983.803
983.459
983.102
982.732
982.35
981.96
981.564
981.164
980.763
980.363
979.969
979.581
979.204
978.84
978.492
978.163
977.854
977.568
977.307
977.073
976.867
976.69
976.544
976.429
976.344
976.291
976.268
976.275
976.311
976.374
976.463
976.576
976.709
976.861
977.028
977.207
977.395
977.589
977.783
977.973
978.158
978.334
978.488
978.622
978.749
978.836
978.864
978.9
978.921
978.802
978.665
978.645
978.44
978.071
977.943
977.791
977.422
977.249
977.172
977.063
1016.43
1016.47
1016.38
1016.05
1015.94
1015.77
1015.37
1015.14
1014.91
1014.58
1014.31
1014.08
1013.81
1013.53
1013.3
1013.07
1012.83
1012.59
1012.37
1012.14
1011.91
1011.68
1011.46
1011.23
1010.99
1010.75
1010.51
1010.26
1010
1009.74
1009.46
1009.18
1008.88
1008.58
1008.26
1007.93
1007.59
1007.23
1006.86
1006.47
1006.06
1005.64
1005.2
1004.74
1004.26
1003.76
1003.24
1002.7
1002.14
1001.56
1000.96
1000.33
999.688
999.025
998.342
997.64
996.921
996.185
995.434
994.67
993.895
993.11
992.317
991.519
990.719
989.919
989.12
988.326
987.54
986.762
985.997
985.247
984.512
983.795
983.099
982.423
981.77
981.139
980.533
979.952
979.395
978.863
978.357
977.874
977.416
976.981
976.569
976.18
975.812
975.464
975.136
974.827
974.536
974.262
974.005
973.763
973.534
973.32
973.119
972.931
972.754
972.589
972.434
972.289
972.154
972.029
971.912
971.804
971.704
971.612
971.528
971.451
971.381
971.318
971.262
971.213
971.17
971.134
971.104
971.08
971.061
971.049
971.041
971.039
971.042
971.05
971.063
971.081
971.102
971.128
971.158
971.191
971.228
971.268
971.311
971.357
971.405
971.455
971.507
971.561
971.617
971.674
971.732
971.792
971.853
971.915
971.979
972.044
972.111
972.179
972.25
972.324
972.401
972.481
972.565
972.654
972.748
972.848
972.954
973.068
973.19
973.32
973.46
973.61
973.771
973.942
974.126
974.321
974.528
974.748
974.98
975.225
975.482
975.75
976.03
976.321
976.622
976.933
977.253
977.58
977.914
978.253
978.597
978.945
979.295
979.647
979.999
980.35
980.699
981.045
981.387
981.724
982.056
982.38
982.697
983.005
983.305
983.594
983.874
984.142
984.4
984.646
984.88
985.101
985.311
985.508
985.692
985.863
986.022
986.168
986.301
986.421
986.529
986.625
986.709
986.78
986.84
986.887
986.921
986.944
986.955
986.953
986.938
986.909
986.867
986.811
986.74
986.653
986.55
986.43
986.292
986.135
985.959
985.763
985.548
985.312
985.056
984.779
984.483
984.168
983.835
983.484
983.119
982.74
982.35
981.95
981.544
981.134
980.722
980.313
979.908
979.511
979.125
978.752
978.395
978.058
977.742
977.45
977.184
976.945
976.734
976.555
976.406
976.289
976.204
976.151
976.13
976.139
976.178
976.245
976.339
976.457
976.598
976.757
976.933
977.122
977.32
977.525
977.733
977.938
978.134
978.325
978.506
978.656
978.786
978.915
978.994
979.008
979.047
979.073
978.944
978.82
978.815
978.649
978.359
978.263
978.201
977.988
977.87
977.927
1016.13
1016.13
1016.04
1015.91
1015.77
1015.48
1015.31
1015.13
1014.81
1014.57
1014.37
1014.11
1013.85
1013.63
1013.41
1013.17
1012.94
1012.73
1012.51
1012.29
1012.06
1011.84
1011.62
1011.39
1011.16
1010.92
1010.68
1010.43
1010.18
1009.91
1009.64
1009.36
1009.06
1008.76
1008.44
1008.11
1007.76
1007.4
1007.03
1006.63
1006.22
1005.8
1005.35
1004.88
1004.4
1003.89
1003.36
1002.81
1002.24
1001.64
1001.03
1000.39
999.732
999.052
998.351
997.631
996.893
996.137
995.366
994.581
993.784
992.977
992.163
991.343
990.522
989.7
988.882
988.069
987.265
986.472
985.693
984.929
984.184
983.458
982.755
982.074
981.418
980.786
980.181
979.602
979.049
978.523
978.022
977.547
977.098
976.672
976.271
975.892
975.534
975.197
974.881
974.582
974.302
974.038
973.79
973.557
973.337
973.131
972.937
972.755
972.584
972.424
972.273
972.133
972.001
971.877
971.762
971.655
971.555
971.463
971.378
971.3
971.229
971.164
971.106
971.054
971.008
970.97
970.936
970.909
970.888
970.872
970.862
970.858
970.859
970.866
970.877
970.894
970.916
970.942
970.972
971.007
971.045
971.088
971.134
971.183
971.235
971.289
971.347
971.406
971.468
971.53
971.595
971.661
971.729
971.798
971.869
971.941
972.015
972.09
972.168
972.249
972.332
972.419
972.509
972.604
972.704
972.81
972.922
973.041
973.168
973.304
973.449
973.603
973.768
973.944
974.132
974.331
974.542
974.765
975.001
975.249
975.508
975.78
976.062
976.356
976.659
976.972
977.293
977.622
977.957
978.297
978.642
978.991
979.341
979.693
980.045
980.396
980.745
981.091
981.433
981.769
982.1
982.424
982.74
983.048
983.347
983.636
983.914
984.182
984.44
984.685
984.919
985.14
985.349
985.546
985.73
985.902
986.061
986.207
986.341
986.462
986.571
986.667
986.751
986.823
986.883
986.931
986.967
986.99
987.002
987.001
986.987
986.959
986.918
986.863
986.792
986.706
986.604
986.484
986.345
986.189
986.012
985.815
985.597
985.359
985.099
984.819
984.518
984.197
983.857
983.5
983.127
982.739
982.339
981.93
981.514
981.094
980.673
980.253
979.839
979.432
979.037
978.656
978.292
977.947
977.624
977.326
977.054
976.81
976.596
976.414
976.263
976.145
976.059
976.007
975.987
975.999
976.041
976.113
976.212
976.337
976.485
976.653
976.838
977.037
977.248
977.464
977.685
977.907
978.121
978.324
978.522
978.706
978.854
978.985
979.115
979.189
979.203
979.253
979.273
979.167
979.088
979.072
978.946
978.796
978.737
978.675
978.647
978.656
1015.91
1015.85
1015.78
1015.74
1015.56
1015.37
1015.24
1015
1014.78
1014.6
1014.37
1014.13
1013.93
1013.72
1013.49
1013.27
1013.07
1012.85
1012.64
1012.43
1012.21
1012
1011.78
1011.55
1011.33
1011.09
1010.86
1010.61
1010.36
1010.1
1009.82
1009.54
1009.25
1008.94
1008.63
1008.29
1007.95
1007.59
1007.21
1006.81
1006.4
1005.97
1005.51
1005.04
1004.55
1004.03
1003.49
1002.93
1002.35
1001.74
1001.11
1000.46
999.783
999.085
998.366
997.626
996.866
996.088
995.294
994.485
993.664
992.833
991.994
991.15
990.304
989.46
988.619
987.785
986.961
986.15
985.355
984.577
983.819
983.084
982.373
981.687
981.027
980.394
979.79
979.214
978.665
978.146
977.652
977.186
976.747
976.332
975.941
975.574
975.229
974.904
974.599
974.313
974.043
973.791
973.553
973.33
973.12
972.923
972.737
972.562
972.397
972.242
972.096
971.959
971.83
971.709
971.596
971.489
971.39
971.297
971.211
971.131
971.057
970.99
970.929
970.873
970.824
970.782
970.745
970.714
970.688
970.669
970.655
970.648
970.646
970.65
970.659
970.674
970.695
970.72
970.75
970.786
970.826
970.871
970.919
970.972
971.028
971.087
971.15
971.216
971.284
971.354
971.426
971.501
971.577
971.655
971.734
971.816
971.899
971.984
972.071
972.161
972.253
972.349
972.448
972.552
972.66
972.774
972.894
973.021
973.156
973.298
973.45
973.611
973.782
973.964
974.157
974.362
974.578
974.806
975.045
975.297
975.56
975.835
976.12
976.416
976.721
977.036
977.358
977.688
978.023
978.364
978.709
979.057
979.408
979.759
980.11
980.46
980.807
981.151
981.491
981.826
982.155
982.477
982.791
983.097
983.395
983.682
983.959
984.225
984.481
984.725
984.958
985.178
985.386
985.582
985.766
985.937
986.096
986.242
986.376
986.497
986.606
986.703
986.787
986.86
986.921
986.969
987.005
987.03
987.042
987.042
987.028
987.002
986.961
986.906
986.836
986.75
986.647
986.527
986.389
986.232
986.054
985.855
985.635
985.394
985.132
984.847
984.541
984.215
983.869
983.504
983.123
982.727
982.319
981.901
981.476
981.046
980.615
980.187
979.763
979.347
978.944
978.554
978.182
977.83
977.501
977.197
976.92
976.672
976.455
976.269
976.117
975.997
975.912
975.861
975.842
975.857
975.903
975.98
976.085
976.217
976.372
976.549
976.745
976.955
977.178
977.409
977.643
977.878
978.113
978.338
978.548
978.753
978.941
979.089
979.223
979.36
979.433
979.455
979.518
979.548
979.475
979.436
979.444
979.378
979.3
979.301
979.329
979.332
1015.68
1015.66
1015.62
1015.52
1015.4
1015.3
1015.12
1014.92
1014.78
1014.58
1014.36
1014.18
1013.99
1013.77
1013.57
1013.38
1013.17
1012.97
1012.77
1012.56
1012.36
1012.14
1011.93
1011.72
1011.49
1011.27
1011.03
1010.79
1010.54
1010.28
1010.01
1009.73
1009.44
1009.14
1008.82
1008.49
1008.14
1007.78
1007.4
1007
1006.58
1006.15
1005.69
1005.21
1004.71
1004.19
1003.64
1003.07
1002.47
1001.85
1001.21
1000.54
999.842
999.125
998.385
997.623
996.839
996.038
995.218
994.383
993.535
992.677
991.81
990.939
990.067
989.196
988.33
987.473
986.627
985.795
984.982
984.188
983.417
982.671
981.952
981.259
980.597
979.963
979.36
978.788
978.245
977.732
977.248
976.792
976.364
975.961
975.583
975.228
974.896
974.585
974.294
974.021
973.764
973.524
973.298
973.086
972.886
972.698
972.521
972.354
972.196
972.047
971.906
971.773
971.647
971.528
971.416
971.31
971.21
971.117
971.029
970.946
970.87
970.799
970.734
970.675
970.622
970.574
970.532
970.496
970.466
970.442
970.424
970.412
970.406
970.406
970.412
970.424
970.442
970.466
970.495
970.531
970.572
970.618
970.669
970.725
970.785
970.85
970.918
970.991
971.066
971.144
971.226
971.31
971.396
971.484
971.575
971.668
971.762
971.859
971.958
972.059
972.164
972.271
972.382
972.497
972.617
972.742
972.873
973.01
973.154
973.307
973.467
973.637
973.816
974.005
974.206
974.417
974.639
974.872
975.117
975.373
975.64
975.918
976.206
976.505
976.812
977.128
977.451
977.781