# vtk DataFile Version 2.0
LBE mesh
ASCII
DATASET STRUCTURED_POINTS
DIMENSIONS 300 100 1
ASPECT_RATIO 1 1 1
ORIGIN 0 0 0
POINT_DATA 30000
SCALARS rho double 1
LOOKUP_TABLE default
1046.76
1015.03
1014.28
1020.73
1018.87
1014.93
1014.7
1015.17
1014.37
1013.53
1013.33
1013.13
1012.71
1012.36
1012.13
1011.87
1011.58
1011.31
1011.06
1010.81
1010.54
1010.28
1010.02
1009.75
1009.48
1009.2
1008.92
1008.63
1008.33
1008.02
1007.7
1007.37
1007.03
1006.68
1006.31
1005.94
1005.55
1005.14
1004.72
1004.29
1003.84
1003.37
1002.89
1002.39
1001.87
1001.34
1000.78
1000.21
999.624
999.016
998.39
997.746
997.085
996.405
995.709
994.997
994.27
993.528
992.773
992.006
991.229
990.442
989.648
988.847
988.043
987.237
986.431
985.627
984.827
984.034
983.248
982.472
981.709
980.959
980.225
979.509
978.811
978.133
977.477
976.844
976.233
975.647
975.085
974.548
974.037
973.551
973.091
972.656
972.246
971.862
971.502
971.165
970.853
970.563
970.296
970.05
969.826
969.622
969.438
969.273
969.126
968.997
968.885
968.79
968.711
968.647
968.597
968.562
968.54
968.531
968.535
968.551
968.578
968.617
968.667
968.728
968.798
968.878
968.968
969.066
969.174
969.291
969.416
969.549
969.691
969.84
969.997
970.162
970.334
970.514
970.702
970.897
971.099
971.309
971.527
971.752
971.985
972.226
972.475
972.732
972.997
973.271
973.552
973.843
974.141
974.449
974.764
975.089
975.421
975.762
976.11
976.466
976.829
977.199
977.576
977.958
978.345
978.737
979.132
979.531
979.931
980.333
980.735
981.137
981.536
981.934
982.328
982.717
983.101
983.479
983.85
984.212
984.566
984.91
985.244
985.566
985.877
986.176
986.462
986.735
986.994
987.239
987.47
987.687
987.89
988.077
988.25
988.409
988.553
988.682
988.796
988.894
988.978
989.047
989.101
989.139
989.161
989.168
989.157
989.129
989.084
989.021
988.939
988.838
988.717
988.577
988.417
988.236
988.036
987.815
987.576
987.317
987.041
986.747
986.438
986.115
985.778
985.432
985.077
984.715
984.35
983.982
983.617
983.255
982.9
982.554
982.22
981.901
981.598
981.315
981.052
980.813
980.598
980.409
980.246
980.11
980.002
979.922
979.869
979.842
979.842
979.866
979.913
979.982
980.07
980.175
980.296
980.43
980.575
980.727
980.886
981.048
981.211
981.372
981.53
981.682
981.826
981.961
982.086
982.197
982.296
982.379
982.448
982.501
982.537
982.556
982.559
982.545
982.514
982.466
982.402
982.323
982.228
982.119
981.995
981.856
981.703
981.537
981.355
981.16
980.951
980.723
980.477
980.221
979.94
979.618
979.29
978.962
978.522
978.006
977.643
977.154
976.093
975.369
975.486
973.523
969.749
971.846
972.709
949.319
1029.64
1026.07
1021.95
1016.72
1016.87
1017.01
1015.8
1014.6
1014.33
1014.04
1013.53
1013.09
1012.82
1012.52
1012.2
1011.91
1011.64
1011.37
1011.1
1010.84
1010.58
1010.31
1010.04
1009.77
1009.49
1009.21
1008.92
1008.63
1008.33
1008.01
1007.69
1007.36
1007.02
1006.66
1006.29
1005.92
1005.52
1005.12
1004.69
1004.26
1003.81
1003.34
1002.85
1002.35
1001.83
1001.3
1000.74
1000.17
999.579
998.971
998.344
997.699
997.037
996.358
995.662
994.95
994.223
993.482
992.728
991.962
991.185
990.4
989.608
988.81
988.008
987.205
986.401
985.6
984.803
984.013
983.23
982.458
981.698
980.953
980.222
979.509
978.815
978.141
977.489
976.858
976.251
975.668
975.11
974.576
974.067
973.584
973.126
972.693
972.286
971.903
971.545
971.21
970.899
970.611
970.345
970.101
969.878
969.674
969.491
969.327
969.18
969.052
968.941
968.846
968.767
968.703
968.653
968.618
968.596
968.588
968.591
968.607
968.635
968.674
968.723
968.783
968.854
968.933
969.023
969.121
969.228
969.344
969.468
969.601
969.742
969.89
970.047
970.211
970.382
970.561
970.747
970.941
971.143
971.352
971.568
971.792
972.024
972.263
972.511
972.767
973.03
973.302
973.582
973.871
974.168
974.474
974.788
975.111
975.441
975.78
976.127
976.481
976.843
977.211
977.585
977.966
978.351
978.741
979.135
979.532
979.931
980.331
980.732
981.131
981.53
981.926
982.319
982.708
983.091
983.468
983.838
984.2
984.553
984.897
985.231
985.553
985.864
986.163
986.448
986.721
986.98
987.226
987.457
987.674
987.877
988.065
988.238
988.396
988.54
988.669
988.783
988.882
988.966
989.036
989.09
989.128
989.151
989.158
989.148
989.121
989.077
989.015
988.934
988.835
988.716
988.579
988.421
988.243
988.045
987.828
987.59
987.335
987.062
986.771
986.464
986.144
985.81
985.466
985.112
984.752
984.388
984.022
983.657
983.295
982.94
982.594
982.259
981.938
981.634
981.348
981.083
980.841
980.623
980.431
980.264
980.125
980.014
979.93
979.873
979.843
979.839
979.859
979.903
979.968
980.053
980.156
980.274
980.406
980.548
980.698
980.855
981.016
981.177
981.337
981.495
981.647
981.791
981.926
982.05
982.163
982.262
982.346
982.415
982.469
982.506
982.526
982.529
982.516
982.485
982.438
982.375
982.296
982.201
982.09
981.965
981.825
981.671
981.502
981.319
981.121
980.906
980.678
980.43
980.159
979.873
979.567
979.215
978.829
978.45
977.994
977.393
976.837
976.347
975.33
974.031
973.538
972.414
968.325
964.617
962.688
1021.53
1026.32
1021.62
1017.29
1017.51
1017.2
1015.78
1014.8
1014.57
1014.18
1013.63
1013.21
1012.92
1012.61
1012.27
1011.98
1011.7
1011.43
1011.15
1010.88
1010.61
1010.34
1010.07
1009.8
1009.52
1009.23
1008.94
1008.64
1008.34
1008.02
1007.7
1007.36
1007.02
1006.66
1006.29
1005.91
1005.52
1005.11
1004.68
1004.24
1003.79
1003.32
1002.84
1002.33
1001.81
1001.27
1000.72
1000.14
999.551
998.941
998.313
997.667
997.004
996.323
995.625
994.913
994.185
993.443
992.688
991.921
991.144
990.359
989.566
988.768
987.967
987.164
986.361
985.561
984.765
983.975
983.194
982.424
981.666
980.922
980.194
979.484
978.792
978.12
977.471
976.843
976.239
975.659
975.103
974.572
974.067
973.586
973.131
972.702
972.297
971.916
971.561
971.229
970.92
970.634
970.37
970.127
969.905
969.704
969.522
969.359
969.214
969.087
968.977
968.883
968.805
968.741
968.693
968.658
968.637
968.629
968.633
968.65
968.677
968.716
968.766
968.826
968.897
968.976
969.066
969.164
969.271
969.387
969.511
969.643
969.784
969.931
970.087
970.25
970.421
970.599
970.785
970.978
971.178
971.386
971.601
971.824
972.054
972.292
972.538
972.793
973.055
973.325
973.604
973.891
974.187
974.491
974.804
975.124
975.454
975.791
976.136
976.489
976.849
977.216
977.589
977.968
978.353
978.742
979.135
979.531
979.929
980.328
980.728
981.128
981.526
981.922
982.315
982.703
983.087
983.464
983.834
984.196
984.549
984.893
985.227
985.55
985.861
986.16
986.446
986.719
986.979
987.225
987.457
987.674
987.876
988.065
988.238
988.396
988.54
988.669
988.784
988.883
988.967
989.037
989.091
989.13
989.154
989.162
989.153
989.127
989.085
989.024
988.946
988.848
988.732
988.597
988.441
988.266
988.07
987.855
987.621
987.368
987.096
986.807
986.502
986.182
985.849
985.505
985.151
984.79
984.425
984.058
983.691
983.327
982.969
982.619
982.281
981.956
981.648
981.358
981.089
980.843
980.621
980.424
980.254
980.111
979.996
979.909
979.849
979.816
979.81
979.828
979.869
979.933
980.016
980.118
980.236
980.367
980.509
980.66
980.817
980.979
981.141
981.303
981.461
981.614
981.76
981.897
982.023
982.137
982.238
982.324
982.395
982.45
982.488
982.509
982.513
982.5
982.471
982.424
982.36
982.281
982.185
982.074
981.948
981.807
981.651
981.48
981.296
981.096
980.878
980.646
980.399
980.125
979.827
979.527
979.186
978.768
978.37
977.996
977.379
976.634
976.317
975.687
973.761
972.965
973.878
969.67
964.202
968.358
1021.25
1019.96
1019.4
1020.56
1018.03
1015.9
1015.83
1015.71
1014.77
1014.04
1013.77
1013.47
1013.03
1012.66
1012.38
1012.09
1011.78
1011.49
1011.22
1010.95
1010.67
1010.4
1010.12
1009.84
1009.56
1009.27
1008.98
1008.68
1008.37
1008.05
1007.72
1007.39
1007.04
1006.68
1006.31
1005.93
1005.53
1005.12
1004.69
1004.25
1003.8
1003.33
1002.84
1002.33
1001.81
1001.27
1000.71
1000.13
999.54
998.927
998.296
997.648
996.982
996.298
995.598
994.882
994.151
993.406
992.648
991.879
991.099
990.31
989.515
988.715
987.911
987.105
986.301
985.499
984.701
983.911
983.13
982.359
981.601
980.858
980.13
979.421
978.731
978.061
977.414
976.789
976.187
975.61
975.057
974.529
974.027
973.55
973.099
972.673
972.271
971.894
971.542
971.213
970.908
970.625
970.363
970.123
969.904
969.705
969.526
969.365
969.222
969.097
968.988
968.896
968.819
968.757
968.71
968.677
968.657
968.649
968.655
968.672
968.701
968.741
968.791
968.852
968.923
969.003
969.093
969.191
969.299
969.415
969.539
969.672
969.812
969.96
970.116
970.278
970.448
970.626
970.811
971.003
971.203
971.41
971.624
971.846
972.075
972.312
972.558
972.811
973.072
973.341
973.618
973.904
974.198
974.501
974.812
975.132
975.46
975.796
976.141
976.492
976.852
977.218
977.59
977.969
978.353
978.742
979.134
979.53
979.928
980.328
980.728
981.128
981.526
981.922
982.316
982.705
983.089
983.466
983.837
984.2
984.554
984.899
985.233
985.557
985.869
986.169
986.456
986.73
986.99
987.236
987.468
987.686
987.889
988.077
988.251
988.409
988.553
988.682
988.797
988.896
988.981
989.051
989.106
989.146
989.17
989.179
989.171
989.148
989.107
989.048
988.972
988.877
988.763
988.63
988.477
988.304
988.11
987.897
987.665
987.412
987.141
986.852
986.547
986.227
985.892
985.546
985.19
984.826
984.457
984.086
983.714
983.345
982.982
982.627
982.283
981.953
981.639
981.343
981.069
980.818
980.591
980.389
980.215
980.068
979.95
979.86
979.798
979.763
979.755
979.772
979.813
979.877
979.961
980.064
980.182
980.315
980.46
980.613
980.773
980.937
981.102
981.267
981.428
981.585
981.734
981.874
982.003
982.12
982.223
982.312
982.385
982.441
982.481
982.504
982.509
982.497
982.467
982.421
982.357
982.277
982.181
982.069
981.942
981.8
981.643
981.471
981.284
981.084
980.867
980.631
980.38
980.116
979.821
979.491
979.165
978.813
978.349
977.876
977.506
976.895
975.96
975.506
975.123
973.265
971.689
971.896
971.133
969.437
1021.24
1019.04
1018.95
1018.81
1017.31
1016.87
1016.27
1015.39
1014.75
1014.42
1014.01
1013.52
1013.14
1012.83
1012.51
1012.18
1011.88
1011.6
1011.32
1011.03
1010.75
1010.48
1010.2
1009.91
1009.63
1009.33
1009.04
1008.73
1008.42
1008.1
1007.77
1007.43
1007.09
1006.72
1006.35
1005.97
1005.57
1005.15
1004.73
1004.28
1003.83
1003.35
1002.86
1002.35
1001.83
1001.28
1000.72
1000.14
999.544
998.928
998.293
997.64
996.97
996.281
995.577
994.856
994.119
993.369
992.605
991.83
991.044
990.25
989.449
988.643
987.834
987.024
986.215
985.409
984.607
983.813
983.029
982.255
981.496
980.751
980.023
979.314
978.624
977.956
977.309
976.687
976.087
975.513
974.964
974.44
973.942
973.469
973.022
972.6
972.203
971.83
971.482
971.158
970.856
970.577
970.32
970.084
969.868
969.673
969.496
969.338
969.198
969.076
968.97
968.88
968.805
968.745
968.7
968.668
968.65
968.644
968.651
968.67
968.7
968.742
968.793
968.855
968.927
969.009
969.099
969.199
969.308
969.425
969.549
969.683
969.823
969.972
970.128
970.291
970.462
970.639
970.824
971.017
971.216
971.423
971.637
971.858
972.087
972.324
972.568
972.82
973.081
973.349
973.626
973.911
974.204
974.506
974.817
975.136
975.463
975.799
976.142
976.494
976.853
977.219
977.591
977.97
978.354
978.743
979.136
979.532
979.931
980.331
980.732
981.133
981.532
981.93
982.324
982.714
983.099
983.478
983.85
984.214
984.57
984.915
985.251
985.576
985.888
986.189
986.477
986.752
987.013
987.259
987.492
987.71
987.913
988.102
988.276
988.435
988.579
988.708
988.823
988.922
989.007
989.078
989.133
989.174
989.199
989.209
989.203
989.181
989.142
989.086
989.012
988.919
988.807
988.676
988.525
988.354
988.162
987.95
987.718
987.466
987.194
986.904
986.597
986.274
985.937
985.587
985.226
984.857
984.482
984.104
983.725
983.349
982.978
982.616
982.264
981.927
981.606
981.304
981.023
980.765
980.533
980.327
980.148
979.998
979.877
979.784
979.72
979.685
979.676
979.694
979.736
979.801
979.888
979.993
980.115
980.251
980.399
980.557
980.721
980.889
981.06
981.229
981.395
981.556
981.71
981.854
981.987
982.108
982.215
982.307
982.383
982.442
982.484
982.508
982.515
982.504
982.475
982.428
982.365
982.284
982.188
982.076
981.948
981.805
981.647
981.476
981.288
981.086
980.871
980.639
980.384
980.118
979.839
979.516
979.164
978.837
978.451
977.914
977.471
977.142
976.325
975.377
975.339
974.627
972.507
972.377
972.659
971.108
1019.15
1019.15
1018.71
1017.21
1017.32
1017.15
1015.95
1015.29
1015.09
1014.64
1014.03
1013.64
1013.35
1013
1012.62
1012.31
1012.03
1011.73
1011.43
1011.15
1010.87
1010.58
1010.3
1010.01
1009.72
1009.43
1009.13
1008.82
1008.51
1008.18
1007.85
1007.51
1007.16
1006.8
1006.42
1006.03
1005.63
1005.22
1004.79
1004.34
1003.88
1003.4
1002.91
1002.4
1001.87
1001.32
1000.75
1000.17
999.566
998.944
998.303
997.644
996.967
996.272
995.56
994.831
994.087
993.328
992.556
991.773
990.978
990.176
989.366
988.552
987.735
986.917
986.099
985.286
984.478
983.678
982.888
982.11
981.347
980.599
979.869
979.158
978.468
977.8
977.154
976.534
975.937
975.365
974.82
974.3
973.806
973.338
972.896
972.479
972.088
971.721
971.378
971.058
970.762
970.488
970.236
970.005
969.794
969.602
969.43
969.276
969.139
969.02
968.917
968.83
968.758
968.7
968.657
968.628
968.612
968.608
968.617
968.638
968.67
968.713
968.767
968.831
968.904
968.988
969.08
969.182
969.292
969.41
969.537
969.672
969.814
969.964
970.121
970.286
970.458
970.637
970.823
971.016
971.216
971.424
971.639
971.86
972.09
972.327
972.571
972.824
973.084
973.352
973.629
973.914
974.208
974.51
974.82
975.139
975.467
975.802
976.146
976.498
976.857
977.224
977.597
977.976
978.361
978.751
979.144
979.541
979.941
980.342
980.745
981.147
981.547
981.946
982.342
982.733
983.119
983.5
983.873
984.239
984.595
984.942
985.279
985.605
985.919
986.221
986.51
986.785
987.047
987.295
987.528
987.746
987.95
988.139
988.313
988.472
988.616
988.746
988.86
988.96
989.046
989.116
989.172
989.213
989.24
989.251
989.246
989.226
989.189
989.134
989.062
988.972
988.862
988.733
988.584
988.414
988.223
988.011
987.778
987.525
987.252
986.96
986.649
986.321
985.979
985.623
985.255
984.879
984.496
984.109
983.722
983.337
982.957
982.585
982.225
981.879
981.55
981.24
980.952
980.688
980.45
980.239
980.056
979.902
979.779
979.684
979.62
979.584
979.576
979.596
979.64
979.708
979.798
979.907
980.034
980.175
980.329
980.491
980.662
980.836
981.012
981.188
981.36
981.527
981.686
981.836
981.975
982.1
982.212
982.308
982.387
982.45
982.494
982.521
982.529
982.519
982.491
982.445
982.382
982.302
982.206
982.093
981.966
981.823
981.665
981.493
981.308
981.107
980.89
980.662
980.418
980.146
979.864
979.58
979.239
978.853
978.526
978.152
977.556
977.074
976.836
976.059
975.031
974.922
974.635
973.488
972.912
973.244
1018.1
1018.47
1017.97
1017.3
1017.09
1016.33
1015.94
1015.66
1015.07
1014.51
1014.2
1013.88
1013.46
1013.09
1012.79
1012.49
1012.17
1011.86
1011.58
1011.29
1011
1010.71
1010.43
1010.14
1009.84
1009.55
1009.24
1008.93
1008.62
1008.29
1007.96
1007.62
1007.26
1006.9
1006.52
1006.13
1005.73
1005.31
1004.87
1004.43
1003.96
1003.48
1002.98
1002.47
1001.93
1001.38
1000.81
1000.22
999.605
998.976
998.328
997.66
996.974
996.27
995.548
994.809
994.054
993.284
992.501
991.706
990.901
990.086
989.265
988.439
987.611
986.781
985.954
985.131
984.313
983.505
982.708
981.923
981.154
980.401
979.667
978.954
978.262
977.593
976.949
976.329
975.735
975.166
974.625
974.109
973.62
973.158
972.721
972.311
971.925
971.564
971.228
970.915
970.625
970.357
970.11
969.885
969.679
969.492
969.324
969.175
969.042
968.927
968.827
968.743
968.675
968.62
968.58
968.553
968.539
968.538
968.549
968.572
968.607
968.652
968.708
968.775
968.851
968.937
969.031
969.135
969.249
969.37
969.499
969.636
969.781
969.934
970.094
970.261
970.435
970.617
970.805
971.001
971.203
971.413
971.629
971.853
972.084
972.322
972.568
972.822
973.084
973.354
973.632
973.918
974.212
974.515
974.827
975.147
975.475
975.812
976.157
976.509
976.869
977.237
977.611
977.991
978.377
978.768
979.163
979.562
979.963
980.365
980.769
981.172
981.574
981.974
982.371
982.764
983.152
983.534
983.908
984.275
984.633
984.981
985.319
985.646
985.961
986.264
986.554
986.83
987.093
987.341
987.574
987.794
987.998
988.187
988.361
988.52
988.664
988.794
988.909
989.009
989.094
989.166
989.222
989.264
989.291
989.303
989.299
989.28
989.244
989.191
989.121
989.032
988.924
988.796
988.648
988.478
988.288
988.076
987.842
987.586
987.31
987.014
986.698
986.365
986.016
985.652
985.276
984.891
984.498
984.101
983.703
983.308
982.918
982.536
982.165
981.81
981.472
981.154
980.859
980.588
980.344
980.128
979.941
979.785
979.659
979.564
979.499
979.464
979.458
979.479
979.527
979.599
979.693
979.808
979.94
980.088
980.248
980.418
980.595
980.777
980.96
981.143
981.322
981.496
981.663
981.819
981.964
982.095
982.212
982.313
982.397
982.463
982.511
982.54
982.551
982.543
982.516
982.472
982.409
982.33
982.235
982.123
981.995
981.854
981.697
981.526
981.342
981.146
980.932
980.704
980.468
980.212
979.926
979.639
979.351
978.986
978.592
978.292
977.892
977.267
976.899
976.667
975.833
975.192
975.192
974.66
974.209
974.523
1017.82
1017.5
1017.25
1017.35
1016.7
1016.09
1015.97
1015.51
1014.98
1014.66
1014.34
1013.92
1013.55
1013.26
1012.95
1012.61
1012.31
1012.02
1011.73
1011.44
1011.15
1010.86
1010.57
1010.28
1009.99
1009.69
1009.38
1009.07
1008.75
1008.43
1008.09
1007.75
1007.39
1007.02
1006.64
1006.25
1005.84
1005.42
1004.99
1004.53
1004.07
1003.58
1003.08
1002.56
1002.02
1001.46
1000.88
1000.28
999.661
999.023
998.365
997.688
996.991
996.275
995.541
994.789
994.021
993.238
992.441
991.632
990.811
989.982
989.146
988.305
987.463
986.62
985.779
984.943
984.114
983.295
982.487
981.694
980.917
980.158
979.419
978.702
978.008
977.338
976.693
976.074
975.482
974.917
974.379
973.869
973.386
972.929
972.499
972.095
971.717
971.364
971.034
970.729
970.445
970.184
969.944
969.725
969.525
969.344
969.182
969.036
968.909
968.797
968.702
968.621
968.555
968.504
968.466
968.442
968.431
968.433
968.446
968.472
968.509
968.557
968.616
968.685
968.764
968.853
968.951
969.059
969.175
969.3
969.433
969.574
969.722
969.879
970.043
970.214
970.393
970.578
970.771
970.97
971.176
971.389
971.609
971.837
972.071
972.313
972.562
972.819
973.083
973.356
973.636
973.925
974.222
974.527
974.84
975.162
975.493
975.831
976.178
976.532
976.894
977.264
977.639
978.021
978.408
978.801
979.197
979.597
979.999
980.403
980.808
981.212
981.616
982.017
982.415
982.809
983.197
983.58
983.956
984.323
984.682
985.031
985.37
985.698
986.014
986.317
986.607
986.885
987.148
987.396
987.63
987.85
988.054
988.243
988.418
988.577
988.721
988.851
988.966
989.066
989.152
989.223
989.28
989.322
989.349
989.362
989.359
989.341
989.306
989.254
989.185
989.097
988.99
988.863
988.715
988.546
988.354
988.14
987.904
987.646
987.366
987.064
986.743
986.402
986.045
985.672
985.287
984.891
984.487
984.079
983.67
983.263
982.861
982.468
982.088
981.722
981.375
981.048
980.745
980.468
980.218
979.998
979.807
979.648
979.521
979.425
979.36
979.327
979.323
979.347
979.399
979.476
979.576
979.696
979.835
979.99
980.157
980.335
980.521
980.71
980.902
981.094
981.281
981.463
981.637
981.801
981.953
982.091
982.214
982.32
982.409
982.48
982.532
982.565
982.578
982.573
982.549
982.506
982.445
982.367
982.273
982.163
982.037
981.897
981.743
981.576
981.394
981.201
980.996
980.773
980.536
980.296
980.035
979.735
979.445
979.168
978.79
978.383
978.121
977.747
977.123
976.792
976.635
976.042
975.532
975.534
975.541
975.393
1017.36
1017.14
1016.99
1016.78
1016.37
1016.2
1015.77
1015.3
1015.06
1014.74
1014.31
1013.97
1013.7
1013.38
1013.04
1012.75
1012.47
1012.17
1011.88
1011.59
1011.31
1011.02
1010.73
1010.44
1010.15
1009.85
1009.54
1009.23
1008.91
1008.58
1008.25
1007.9
1007.54
1007.17
1006.79
1006.4
1005.99
1005.56
1005.12
1004.67
1004.19
1003.7
1003.2
1002.67
1002.12
1001.55
1000.97
1000.36
999.734
999.085
998.416
997.727
997.017
996.288
995.539
994.773
993.989
993.189
992.376
991.549
990.711
989.864
989.011
988.153
987.292
986.433
985.576
984.724
983.881
983.049
982.229
981.425
980.638
979.872
979.126
978.404
977.707
977.035
976.39
975.772
975.183
974.621
974.088
973.583
973.105
972.656
972.233
971.837
971.467
971.121
970.8
970.502
970.227
969.974
969.741
969.528
969.335
969.16
969.003
968.863
968.74
968.633
968.541
968.464
968.402
968.354
968.319
968.297
968.289
968.293
968.309
968.337
968.376
968.427
968.488
968.56
968.643
968.735
968.837
968.949
969.069
969.198
969.336
969.482
969.636
969.798
969.967
970.144
970.329
970.52
970.718
970.923
971.135
971.354
971.58
971.813
972.052
972.299
972.553
972.815
973.084
973.361
973.646
973.939
974.24
974.549
974.865
975.191
975.524
975.866
976.215
976.572
976.937
977.308
977.685
978.069
978.458
978.852
979.25
979.651
980.054
980.459
980.865
981.27
981.674
982.076
982.474
982.869
983.258
983.641
984.017
984.385
984.744
985.093
985.432
985.76
986.076
986.38
986.67
986.947
987.21
987.459
987.693
987.912
988.117
988.306
988.481
988.64
988.784
988.914
989.029
989.129
989.214
989.285
989.342
989.384
989.412
989.425
989.422
989.404
989.37
989.319
989.25
989.163
989.056
988.929
988.781
988.61
988.418
988.201
987.962
987.7
987.415
987.107
986.779
986.43
986.064
985.681
985.285
984.878
984.463
984.043
983.622
983.202
982.789
982.385
981.993
981.617
981.261
980.926
980.616
980.332
980.077
979.851
979.658
979.496
979.367
979.271
979.207
979.175
979.174
979.202
979.258
979.34
979.446
979.573
979.719
979.882
980.058
980.244
980.439
980.638
980.839
981.039
981.236
981.426
981.609
981.781
981.941
982.087
982.216
982.329
982.424
982.5
982.557
982.594
982.611
982.609
982.588
982.548
982.489
982.414
982.322
982.214
982.091
981.954
981.803
981.641
981.465
981.275
981.076
980.867
980.637
980.395
980.156
979.892
979.585
979.306
979.037
978.651
978.276
978.047
977.668
977.159
976.931
976.717
976.336
976.197
976.213
976.305
1016.83
1016.84
1016.72
1016.36
1016.22
1016.02
1015.58
1015.31
1015.04
1014.67
1014.35
1014.08
1013.77
1013.45
1013.16
1012.89
1012.59
1012.3
1012.03
1011.75
1011.46
1011.18
1010.9
1010.61
1010.31
1010.02
1009.71
1009.4
1009.08
1008.75
1008.42
1008.07
1007.71
1007.34
1006.96
1006.56
1006.15
1005.72
1005.28
1004.82
1004.34
1003.85
1003.33
1002.8
1002.25
1001.67
1001.08
1000.46
999.822
999.162
998.48
997.777
997.053
996.308
995.543
994.759
993.958
993.139
992.306
991.459
990.601
989.734
988.86
987.981
987.101
986.221
985.345
984.476
983.616
982.768
981.934
981.117
980.32
979.544
978.791
978.063
977.362
976.688
976.042
975.426
974.839
974.281
973.752
973.253
972.783
972.341
971.927
971.539
971.178
970.841
970.529
970.24
969.974
969.729
969.504
969.299
969.112
968.944
968.793
968.659
968.541
968.438
968.35
968.276
968.217
968.172
968.14
968.12
968.114
968.12
968.138
968.168
968.21
968.263
968.327
968.402
968.488
968.584
968.69
968.806
968.931
969.065
969.209
969.361
969.521
969.69
969.866
970.051
970.242
970.441
970.647
970.86
971.08
971.307
971.541
971.781
972.028
972.283
972.544
972.813
973.089
973.372
973.663
973.962
974.269
974.583
974.905
975.235
975.573
975.919
976.271
976.632
976.999
977.373
977.754
978.14
978.531
978.926
979.325
979.727
980.131
980.537
980.943
981.349
981.752
982.154
982.552
982.946
983.334
983.717
984.092
984.459
984.817
985.166
985.504
985.831
986.146
986.449
986.739
987.015
987.277
987.525
987.759
987.978
988.182
988.371
988.545
988.704
988.848
988.977
989.092
989.192
989.277
989.348
989.405
989.447
989.474
989.487
989.484
989.466
989.432
989.381
989.312
989.224
989.117
988.989
988.839
988.668
988.472
988.254
988.011
987.744
987.453
987.139
986.803
986.446
986.07
985.677
985.27
984.852
984.425
983.992
983.559
983.128
982.703
982.287
981.885
981.499
981.134
980.79
980.473
980.182
979.922
979.692
979.495
979.331
979.201
979.104
979.041
979.011
979.013
979.045
979.106
979.194
979.306
979.44
979.594
979.765
979.95
980.146
980.35
980.558
980.769
980.979
981.186
981.386
981.578
981.759
981.928
982.081
982.219
982.339
982.44
982.522
982.584
982.626
982.648
982.649
982.632
982.595
982.541
982.469
982.38
982.276
982.157
982.024
981.879
981.72
981.551
981.37
981.175
980.973
980.764
980.53
980.287
980.056
979.793
979.483
979.221
978.97
978.591
978.247
978.052
977.728
977.32
977.144
977.049
976.85
976.805
977.059
1016.53
1016.51
1016.38
1016.22
1016.05
1015.73
1015.52
1015.3
1014.94
1014.66
1014.42
1014.12
1013.81
1013.54
1013.28
1012.99
1012.71
1012.44
1012.17
1011.89
1011.62
1011.34
1011.06
1010.77
1010.48
1010.19
1009.89
1009.58
1009.26
1008.93
1008.6
1008.25
1007.89
1007.52
1007.14
1006.74
1006.33
1005.9
1005.45
1004.99
1004.51
1004.01
1003.49
1002.95
1002.39
1001.8
1001.2
1000.57
999.924
999.252
998.556
997.839
997.098
996.336
995.553
994.75
993.928
993.088
992.233
991.363
990.482
989.591
988.694
987.792
986.888
985.986
985.089
984.198
983.319
982.453
981.603
980.772
979.962
979.176
978.414
977.68
976.974
976.297
975.651
975.036
974.452
973.898
973.375
972.884
972.421
971.988
971.583
971.205
970.854
970.527
970.225
969.946
969.689
969.453
969.237
969.04
968.861
968.7
968.555
968.427
968.314
968.215
968.131
968.061
968.005
967.962
967.932
967.915
967.91
967.918
967.938
967.969
968.013
968.068
968.135
968.213
968.301
968.401
968.511
968.632
968.762
968.902
969.052
969.211
969.379
969.555
969.74
969.932
970.133
970.342
970.557
970.781
971.01
971.247
971.491
971.742
971.999
972.263
972.535
972.813
973.098
973.39
973.69
973.997
974.311
974.632
974.961
975.297
975.641
975.992
976.35
976.715
977.086
977.464
977.847
978.235
978.628
979.025
979.425
979.828
980.233
980.638
981.044
981.449
981.852
982.252
982.649
983.041
983.428
983.809
984.182
984.547
984.903
985.25
985.586
985.911
986.224
986.525
986.812
987.087
987.348
987.594
987.826
988.044
988.247
988.435
988.607
988.766
988.909
989.038
989.152
989.251
989.336
989.407
989.462
989.504
989.531
989.543
989.54
989.521
989.486
989.434
989.364
989.275
989.167
989.038
988.887
988.713
988.515
988.293
988.046
987.774
987.478
987.157
986.813
986.448
986.062
985.659
985.241
984.811
984.373
983.929
983.484
983.041
982.605
982.178
981.765
981.37
980.995
980.644
980.319
980.022
979.757
979.523
979.322
979.156
979.025
978.928
978.866
978.839
978.843
978.879
978.945
979.038
979.157
979.299
979.461
979.641
979.835
980.04
980.254
980.473
980.694
980.915
981.131
981.342
981.544
981.735
981.912
982.075
982.221
982.348
982.457
982.545
982.613
982.661
982.688
982.694
982.681
982.649
982.599
982.531
982.447
982.348
982.234
982.107
981.967
981.815
981.653
981.481
981.298
981.101
980.901
980.693
980.46
980.221
979.999
979.739
979.44
979.2
978.955
978.61
978.323
978.129
977.858
977.6
977.48
977.401
977.411
977.59
1016.31
1016.23
1016.12
1016.05
1015.84
1015.61
1015.45
1015.17
1014.91
1014.69
1014.41
1014.13
1013.89
1013.63
1013.35
1013.09
1012.83
1012.57
1012.3
1012.03
1011.77
1011.49
1011.22
1010.94
1010.65
1010.36
1010.06
1009.76
1009.44
1009.12
1008.78
1008.44
1008.08
1007.71
1007.33
1006.93
1006.51
1006.08
1005.64
1005.17
1004.69
1004.18
1003.66
1003.11
1002.54
1001.95
1001.34
1000.7
1000.04
999.353
998.644
997.91
997.152
996.371
995.568
994.743
993.899
993.036
992.156
991.261
990.354
989.437
988.512
987.584
986.655
985.727
984.805
983.892
982.991
982.104
981.236
980.388
979.564
978.766
977.995
977.254
976.544
975.865
975.218
974.605
974.024
973.476
972.96
972.475
972.022
971.599
971.204
970.838
970.497
970.182
969.891
969.623
969.377
969.151
968.945
968.757
968.586
968.432
968.294
968.171
968.063
967.97
967.89
967.823
967.769
967.728
967.7
967.684
967.681
967.69
967.711
967.743
967.788
967.845
967.914
967.994
968.086
968.188
968.302
968.428
968.564
968.71
968.866
969.033
969.209
969.394
969.588
969.791
970.002
970.222
970.449
970.684
970.926
971.175
971.431
971.695
971.964
972.241
972.524
972.814
973.111
973.415
973.725
974.042
974.366
974.697
975.034
975.379
975.73
976.088
976.452
976.822
977.198
977.58
977.966
978.357
978.753
979.151
979.552
979.956
980.36
980.765
981.17
981.573
981.974
982.373
982.767
983.156
983.54
983.918
984.288
984.649
985.002
985.345
985.677
985.998
986.308
986.605
986.89
987.161
987.418
987.662
987.891
988.107
988.307
988.493
988.664
988.82
988.962
989.089
989.202
989.3
989.384
989.453
989.509
989.549
989.575
989.586
989.583
989.563
989.527
989.473
989.402
989.312
989.202
989.07
988.917
988.74
988.54
988.314
988.063
987.786
987.484
987.156
986.805
986.432
986.037
985.625
985.197
984.756
984.307
983.852
983.396
982.942
982.495
982.058
981.636
981.231
980.848
980.489
980.157
979.855
979.584
979.346
979.142
978.974
978.841
978.745
978.684
978.658
978.666
978.706
978.776
978.876
979.002
979.151
979.321
979.51
979.713
979.929
980.153
980.383
980.615
980.846
981.073
981.295
981.507
981.708
981.895
982.067
982.221
982.358
982.474
982.57
982.644
982.698
982.731
982.743
982.735
982.708
982.663
982.601
982.522
982.429
982.321
982.2
982.068
981.925
981.77
981.606
981.435
981.252
981.056
980.861
980.658
980.427
980.197
979.987
979.733
979.449
979.229
978.999
978.693
978.448
978.282
978.072
977.893
977.835
977.855
977.974
1016.08
1016.04
1015.96
1015.84
1015.68
1015.55
1015.33
1015.09
1014.91
1014.67
1014.41
1014.18
1013.94
1013.68
1013.43
1013.19
1012.94
1012.68
1012.43
1012.17
1011.91
1011.64
1011.38
1011.1
1010.82
1010.53
1010.24
1009.94
1009.63
1009.31
1008.98
1008.63
1008.28
1007.91
1007.53
1007.13
1006.71
1006.28
1005.83
1005.37
1004.88
1004.37
1003.84
1003.29
1002.71
1002.11
1001.49
1000.84
1000.17
999.467
998.741
997.99
997.214
996.413
995.588
994.74
993.871
992.982
992.075
991.152
990.216
989.27
988.316
987.358
986.4
985.444
984.495
983.555
982.63
981.721
980.832
979.967
979.127
978.316
977.535
976.786
976.071
975.39
974.743
974.132
973.556
973.013
972.505
972.031
971.588
971.176
970.793
970.439
970.111
969.809
969.531
969.275
969.04
968.826
968.63
968.451
968.289
968.144
968.013
967.896
967.794
967.705
967.628
967.564
967.513
967.474
967.447
967.432
967.429
967.439
967.46
967.494
967.539
967.597
967.667
967.749
967.843
967.949
968.067
968.196
968.338
968.49
968.654
968.828
969.013
969.207
969.412
969.626
969.849
970.081
970.321
970.57
970.826
971.09
971.361
971.638
971.923
972.215
972.513
972.817
973.128
973.445
973.769
974.099
974.435
974.777
975.125
975.479
975.84
976.205
976.577
976.954
977.336
977.722
978.113
978.507
978.905
979.305
979.707
980.111
980.515
980.919
981.321
981.722
982.121
982.516
982.906
983.292
983.672
984.044
984.409
984.766
985.113
985.451