# vtk DataFile Version 2.0
LBE mesh
ASCII
DATASET STRUCTURED_POINTS
DIMENSIONS 300 100 1
ASPECT_RATIO 1 1 1
ORIGIN 0 0 0
POINT_DATA 30000
SCALARS rho double 1
LOOKUP_TABLE default
1049.86
1018.51
1017.78
1024.12
1022.24
1018.33
1018.1
1018.54
1017.71
1016.87
1016.64
1016.42
1015.98
1015.62
1015.36
1015.08
1014.78
1014.49
1014.23
1013.97
1013.7
1013.43
1013.17
1012.91
1012.64
1012.37
1012.1
1011.82
1011.54
1011.25
1010.95
1010.64
1010.33
1010
1009.66
1009.31
1008.94
1008.56
1008.17
1007.77
1007.35
1006.92
1006.47
1006
1005.52
1005.03
1004.52
1003.99
1003.45
1002.89
1002.32
1001.73
1001.13
1000.51
999.875
999.227
998.566
997.892
997.208
996.512
995.808
995.096
994.378
993.655
992.929
992.203
991.477
990.753
990.033
989.319
988.613
987.916
987.23
986.557
985.897
985.253
984.625
984.015
983.423
982.851
982.299
981.767
981.257
980.768
980.302
979.857
979.435
979.036
978.66
978.306
977.975
977.667
977.381
977.118
976.877
976.658
976.46
976.284
976.127
975.992
975.876
975.778
975.699
975.638
975.593
975.564
975.551
975.551
975.566
975.592
975.631
975.68
975.739
975.807
975.883
975.966
976.056
976.151
976.25
976.354
976.46
976.569
976.678
976.788
976.898
977.007
977.115
977.22
977.323
977.422
977.518
977.61
977.698
977.781
977.859
977.933
978.002
978.067
978.127
978.182
978.233
978.279
978.322
978.361
978.397
978.429
978.458
978.483
978.506
978.526
978.544
978.559
978.572
978.582
978.59
978.596
978.599
978.6
978.598
978.593
978.585
978.573
978.557
978.536
978.511
978.48
978.443
978.4
978.351
978.296
978.234
978.166
978.091
978.011
977.926
977.837
977.745
977.651
977.556
977.461
977.369
977.279
977.195
977.117
977.048
976.988
976.939
976.903
976.88
976.872
976.88
976.905
976.946
977.005
977.082
977.177
977.289
977.419
977.565
977.727
977.904
978.095
978.3
978.517
978.745
978.982
979.229
979.482
979.742
980.006
980.275
980.547
980.82
981.094
981.368
981.641
981.913
982.181
982.445
982.706
982.961
983.21
983.452
983.688
983.916
984.135
984.345
984.546
984.737
984.918
985.089
985.249
985.399
985.538
985.668
985.786
985.895
985.994
986.084
986.165
986.238
986.303
986.361
986.412
986.457
986.497
986.531
986.56
986.586
986.607
986.626
986.64
986.652
986.661
986.668
986.672
986.673
986.672
986.668
986.661
986.652
986.64
986.625
986.607
986.585
986.56
986.531
986.499
986.462
986.421
986.375
986.324
986.267
986.203
986.133
986.054
985.967
985.87
985.761
985.64
985.507
985.354
985.184
985.002
984.793
984.54
984.279
984.016
983.64
983.181
982.872
982.44
981.422
980.735
980.905
978.962
975.142
977.298
978.186
954.198
1032.92
1029.41
1025.33
1020.15
1020.28
1020.39
1019.17
1017.97
1017.68
1017.37
1016.83
1016.38
1016.08
1015.77
1015.43
1015.12
1014.84
1014.56
1014.27
1014
1013.73
1013.46
1013.19
1012.93
1012.66
1012.38
1012.11
1011.83
1011.54
1011.25
1010.95
1010.64
1010.32
1009.99
1009.65
1009.29
1008.92
1008.54
1008.15
1007.74
1007.32
1006.89
1006.44
1005.97
1005.49
1004.99
1004.48
1003.96
1003.41
1002.86
1002.28
1001.69
1001.09
1000.47
999.838
999.19
998.53
997.857
997.173
996.479
995.776
995.066
994.35
993.629
992.905
992.181
991.457
990.736
990.018
989.307
988.604
987.91
987.227
986.556
985.9
985.258
984.633
984.026
983.436
982.867
982.317
981.788
981.279
980.793
980.328
979.885
979.465
979.067
978.692
978.34
978.01
977.703
977.418
977.156
976.916
976.697
976.5
976.324
976.169
976.033
975.918
975.82
975.742
975.68
975.635
975.606
975.593
975.593
975.607
975.633
975.671
975.721
975.779
975.847
975.922
976.005
976.094
976.188
976.287
976.39
976.496
976.603
976.712
976.821
976.931
977.039
977.146
977.251
977.353
977.452
977.547
977.638
977.725
977.808
977.886
977.959
978.028
978.092
978.152
978.207
978.257
978.304
978.346
978.385
978.42
978.451
978.48
978.505
978.527
978.547
978.564
978.578
978.59
978.6
978.607
978.612
978.615
978.615
978.612
978.607
978.598
978.585
978.569
978.547
978.522
978.49
978.453
978.411
978.362
978.307
978.245
978.177
978.104
978.025
977.941
977.853
977.761
977.667
977.573
977.479
977.387
977.298
977.214
977.135
977.066
977.005
976.956
976.918
976.894
976.885
976.892
976.914
976.954
977.011
977.086
977.178
977.289
977.416
977.56
977.719
977.894
978.084
978.286
978.501
978.727
978.963
979.208
979.46
979.718
979.982
980.25
980.521
980.793
981.067
981.34
981.613
981.884
982.152
982.417
982.677
982.932
983.182
983.424
983.66
983.888
984.108
984.318
984.52
984.712
984.893
985.065
985.226
985.376
985.516
985.646
985.765
985.875
985.975
986.065
986.147
986.22
986.286
986.344
986.396
986.441
986.481
986.516
986.545
986.571
986.592
986.611
986.626
986.637
986.646
986.653
986.656
986.657
986.655
986.651
986.644
986.634
986.621
986.605
986.586
986.564
986.538
986.508
986.475
986.438
986.395
986.348
986.296
986.238
986.172
986.1
986.02
985.93
985.831
985.72
985.596
985.458
985.305
985.134
984.937
984.724
984.49
984.206
983.886
983.57
983.175
982.628
982.125
981.689
980.709
979.434
978.988
977.867
973.715
969.936
967.898
1024.91
1029.65
1024.99
1020.69
1020.89
1020.57
1019.14
1018.15
1017.9
1017.5
1016.92
1016.49
1016.18
1015.85
1015.5
1015.19
1014.9
1014.61
1014.32
1014.04
1013.77
1013.5
1013.23
1012.95
1012.68
1012.41
1012.13
1011.85
1011.56
1011.26
1010.96
1010.65
1010.33
1009.99
1009.65
1009.29
1008.92
1008.54
1008.15
1007.74
1007.31
1006.88
1006.43
1005.96
1005.48
1004.98
1004.47
1003.94
1003.4
1002.84
1002.27
1001.68
1001.07
1000.45
999.819
999.172
998.511
997.838
997.154
996.459
995.757
995.046
994.33
993.609
992.885
992.161
991.438
990.717
990.001
989.29
988.588
987.894
987.212
986.543
985.888
985.247
984.624
984.018
983.43
982.861
982.313
981.785
981.278
980.793
980.329
979.888
979.469
979.072
978.699
978.347
978.019
977.713
977.429
977.168
976.928
976.711
976.515
976.34
976.185
976.05
975.935
975.839
975.76
975.7
975.655
975.627
975.614
975.614
975.628
975.655
975.693
975.742
975.801
975.868
975.943
976.026
976.114
976.209
976.308
976.41
976.516
976.623
976.732
976.841
976.95
977.058
977.165
977.269
977.371
977.47
977.565
977.656
977.743
977.825
977.904
977.977
978.046
978.11
978.17
978.225
978.275
978.322
978.365
978.403
978.438
978.47
978.498
978.523
978.545
978.564
978.581
978.595
978.607
978.616
978.623
978.627
978.629
978.629
978.626
978.619
978.61
978.597
978.58
978.558
978.533
978.501
978.464
978.421
978.372
978.317
978.256
978.188
978.115
978.035
977.951
977.863
977.771
977.677
977.582
977.487
977.394
977.304
977.218
977.139
977.067
977.005
976.953
976.914
976.888
976.877
976.881
976.901
976.939
976.994
977.067
977.158
977.266
977.392
977.534
977.693
977.867
978.056
978.258
978.472
978.698
978.933
979.178
979.43
979.689
979.953
980.221
980.492
980.766
981.04
981.314
981.588
981.859
982.128
982.394
982.655
982.91
983.16
983.404
983.641
983.869
984.089
984.3
984.502
984.694
984.876
985.048
985.209
985.36
985.5
985.63
985.75
985.859
985.959
986.05
986.131
986.205
986.27
986.328
986.38
986.425
986.465
986.499
986.528
986.554
986.575
986.593
986.607
986.618
986.626
986.632
986.635
986.635
986.632
986.627
986.619
986.608
986.594
986.578
986.558
986.535
986.508
986.478
986.444
986.406
986.363
986.315
986.261
986.202
986.136
986.063
985.982
985.891
985.79
985.679
985.555
985.414
985.26
985.091
984.893
984.67
984.442
984.174
983.824
983.49
983.182
982.626
981.931
981.671
981.098
979.191
978.431
979.419
975.151
969.582
973.809
1024.63
1023.34
1022.78
1023.91
1021.38
1019.26
1019.17
1019.04
1018.09
1017.34
1017.05
1016.73
1016.28
1015.89
1015.59
1015.29
1014.97
1014.67
1014.39
1014.1
1013.82
1013.55
1013.27
1013
1012.72
1012.45
1012.17
1011.88
1011.59
1011.3
1010.99
1010.68
1010.35
1010.02
1009.67
1009.31
1008.94
1008.56
1008.16
1007.75
1007.33
1006.89
1006.44
1005.97
1005.49
1004.99
1004.48
1003.95
1003.41
1002.85
1002.27
1001.68
1001.07
1000.45
999.817
999.168
998.506
997.831
997.145
996.448
995.743
995.031
994.312
993.59
992.864
992.138
991.412
990.69
989.972
989.26
988.556
987.862
987.179
986.508
985.852
985.212
984.588
983.982
983.395
982.827
982.278
981.751
981.245
980.761
980.298
979.858
979.44
979.045
978.672
978.322
977.995
977.69
977.408
977.148
976.91
976.694
976.499
976.325
976.172
976.039
975.925
975.829
975.752
975.692
975.649
975.621
975.609
975.61
975.625
975.653
975.691
975.741
975.799
975.867
975.943
976.026
976.115
976.209
976.309
976.411
976.517
976.625
976.734
976.843
976.953
977.061
977.168
977.273
977.375
977.474
977.57
977.661
977.749
977.832
977.911
977.985
978.054
978.119
978.179
978.235
978.286
978.333
978.377
978.416
978.451
978.483
978.512
978.537
978.56
978.579
978.596
978.609
978.621
978.63
978.637
978.641
978.643
978.642
978.639
978.632
978.622
978.609
978.592
978.57
978.544
978.511
978.474
978.431
978.382
978.326
978.265
978.196
978.122
978.042
977.957
977.867
977.774
977.679
977.582
977.484
977.389
977.296
977.208
977.126
977.052
976.986
976.932
976.889
976.861
976.846
976.848
976.867
976.902
976.955
977.027
977.116
977.224
977.348
977.49
977.649
977.823
978.012
978.215
978.43
978.657
978.894
979.14
979.394
979.654
979.92
980.19
980.463
980.738
981.014
981.291
981.566
981.839
982.109
982.376
982.638
982.895
983.146
983.391
983.628
983.857
984.078
984.29
984.491
984.684
984.866
985.038
985.199
985.35
985.49
985.619
985.738
985.847
985.947
986.037
986.118
986.191
986.256
986.314
986.364
986.409
986.448
986.482
986.51
986.534
986.554
986.571
986.584
986.595
986.602
986.606
986.608
986.607
986.603
986.597
986.588
986.577
986.562
986.544
986.523
986.5
986.472
986.441
986.406
986.367
986.324
986.276
986.222
986.162
986.096
986.023
985.942
985.852
985.751
985.639
985.516
985.379
985.223
985.051
984.867
984.651
984.397
984.146
983.868
983.474
983.068
982.769
982.222
981.342
980.954
980.635
978.802
977.275
977.552
976.835
975.128
1024.6
1022.41
1022.31
1022.16
1020.66
1020.2
1019.59
1018.7
1018.05
1017.7
1017.27
1016.77
1016.37
1016.04
1015.71
1015.37
1015.06
1014.76
1014.47
1014.18
1013.9
1013.62
1013.35
1013.07
1012.79
1012.51
1012.23
1011.94
1011.65
1011.35
1011.05
1010.73
1010.4
1010.07
1009.72
1009.36
1008.99
1008.6
1008.21
1007.79
1007.37
1006.93
1006.47
1006.01
1005.52
1005.02
1004.51
1003.98
1003.43
1002.87
1002.29
1001.7
1001.09
1000.47
999.829
999.176
998.51
997.832
997.142
996.441
995.732
995.015
994.292
993.565
992.835
992.104
991.374
990.648
989.925
989.209
988.502
987.804
987.119
986.446
985.787
985.145
984.52
983.912
983.324
982.755
982.207
981.679
981.174
980.69
980.228
979.789
979.373
978.979
978.608
978.26
977.934
977.632
977.351
977.093
976.857
976.643
976.45
976.278
976.127
975.995
975.883
975.789
975.714
975.656
975.613
975.588
975.576
975.579
975.595
975.623
975.663
975.713
975.773
975.841
975.918
976.001
976.091
976.186
976.286
976.389
976.496
976.604
976.714
976.824
976.934
977.044
977.152
977.257
977.361
977.461
977.557
977.65
977.739
977.824
977.903
977.979
978.05
978.116
978.178
978.235
978.288
978.336
978.381
978.421
978.458
978.491
978.521
978.547
978.57
978.59
978.608
978.622
978.634
978.643
978.65
978.654
978.656
978.655
978.651
978.644
978.634
978.62
978.603
978.58
978.554
978.521
978.484
978.44
978.39
978.334
978.271
978.201
978.126
978.044
977.957
977.865
977.77
977.671
977.571
977.471
977.372
977.275
977.184
977.098
977.02
976.95
976.892
976.846
976.814
976.797
976.796
976.812
976.845
976.897
976.967
977.055
977.162
977.287
977.429
977.589
977.764
977.954
978.159
978.376
978.606
978.845
979.094
979.351
979.614
979.883
980.156
980.432
980.71
980.989
981.268
981.545
981.821
982.093
982.362
982.626
982.885
983.137
983.383
983.621
983.851
984.073
984.285
984.487
984.68
984.861
985.033
985.194
985.344
985.484
985.613
985.731
985.839
985.938
986.027
986.108
986.179
986.243
986.3
986.349
986.393
986.43
986.463
986.49
986.513
986.532
986.547
986.559
986.568
986.573
986.577
986.577
986.575
986.57
986.562
986.552
986.539
986.523
986.505
986.483
986.458
986.43
986.399
986.363
986.324
986.281
986.233
986.179
986.12
986.055
985.982
985.902
985.813
985.715
985.605
985.483
985.35
985.201
985.031
984.847
984.653
984.412
984.139
983.892
983.587
983.126
982.759
982.513
981.769
980.888
980.949
980.313
978.237
978.199
978.592
977.108
1022.52
1022.5
1022.05
1020.56
1020.65
1020.45
1019.24
1018.57
1018.36
1017.89
1017.27
1016.86
1016.56
1016.19
1015.8
1015.48
1015.19
1014.88
1014.58
1014.29
1014.01
1013.72
1013.44
1013.16
1012.89
1012.6
1012.32
1012.03
1011.74
1011.44
1011.13
1010.81
1010.48
1010.15
1009.8
1009.44
1009.06
1008.68
1008.28
1007.86
1007.43
1006.99
1006.54
1006.07
1005.58
1005.08
1004.56
1004.03
1003.48
1002.92
1002.33
1001.74
1001.13
1000.5
999.854
999.196
998.524
997.84
997.143
996.436
995.72
994.996
994.266
993.532
992.795
992.057
991.32
990.586
989.857
989.135
988.422
987.719
987.028
986.35
985.688
985.042
984.413
983.803
983.213
982.642
982.093
981.565
981.06
980.576
980.116
979.678
979.263
978.871
978.502
978.156
977.833
977.533
977.256
977
976.767
976.555
976.365
976.195
976.046
975.917
975.808
975.716
975.643
975.587
975.547
975.522
975.513
975.517
975.534
975.564
975.605
975.656
975.717
975.787
975.864
975.948
976.039
976.135
976.236
976.34
976.448
976.557
976.668
976.779
976.891
977.002
977.111
977.219
977.323
977.425
977.524
977.619
977.709
977.796
977.878
977.956
978.029
978.098
978.162
978.221
978.276
978.327
978.374
978.417
978.456
978.491
978.522
978.55
978.575
978.597
978.615
978.631
978.644
978.654
978.661
978.665
978.667
978.666
978.663
978.655
978.645
978.631
978.613
978.59
978.563
978.53
978.492
978.447
978.396
978.338
978.274
978.202
978.125
978.04
977.951
977.855
977.757
977.654
977.551
977.446
977.343
977.242
977.146
977.055
976.972
976.898
976.836
976.786
976.75
976.73
976.726
976.739
976.771
976.821
976.89
976.978
977.086
977.211
977.355
977.516
977.693
977.886
978.093
978.314
978.546
978.789
979.042
979.303
979.57
979.843
980.119
980.399
980.681
980.963
981.245
981.526
981.805
982.08
982.351
982.618
982.879
983.133
983.38
983.619
983.85
984.072
984.284
984.487
984.68
984.861
985.033
985.193
985.343
985.481
985.609
985.727
985.834
985.931
986.02
986.098
986.169
986.231
986.286
986.334
986.377
986.412
986.443
986.469
986.49
986.507
986.521
986.531
986.538
986.542
986.544
986.542
986.539
986.532
986.523
986.511
986.497
986.48
986.461
986.438
986.413
986.384
986.353
986.317
986.278
986.235
986.187
986.135
986.077
986.012
985.942
985.864
985.778
985.682
985.578
985.461
985.33
985.19
985.035
984.851
984.658
984.463
984.211
983.912
983.676
983.393
982.886
982.497
982.363
981.676
980.747
980.76
980.589
979.534
979.073
979.553
1021.45
1021.8
1021.3
1020.62
1020.39
1019.62
1019.21
1018.91
1018.31
1017.74
1017.41
1017.08
1016.64
1016.26
1015.94
1015.64
1015.31
1015
1014.71
1014.42
1014.13
1013.85
1013.57
1013.29
1013
1012.72
1012.44
1012.15
1011.85
1011.55
1011.24
1010.92
1010.59
1010.25
1009.9
1009.54
1009.16
1008.78
1008.37
1007.96
1007.53
1007.08
1006.63
1006.15
1005.66
1005.16
1004.64
1004.1
1003.55
1002.98
1002.39
1001.79
1001.17
1000.54
999.89
999.225
998.546
997.853
997.148
996.432
995.707
994.973
994.233
993.489
992.742
991.995
991.248
990.505
989.767
989.036
988.314
987.603
986.904
986.22
985.552
984.9
984.267
983.653
983.06
982.487
981.936
981.407
980.901
980.418
979.959
979.522
979.109
978.72
978.354
978.011
977.691
977.394
977.12
976.868
976.638
976.43
976.243
976.077
975.931
975.805
975.698
975.61
975.539
975.485
975.448
975.426
975.418
975.424
975.443
975.474
975.516
975.569
975.631
975.702
975.781
975.866
975.958
976.055
976.157
976.262
976.371
976.481
976.594
976.706
976.82
976.932
977.043
977.153
977.26
977.364
977.465
977.562
977.656
977.745
977.83
977.911
977.988
978.06
978.127
978.19
978.249
978.303
978.353
978.399
978.441
978.479
978.514
978.544
978.572
978.596
978.616
978.633
978.648
978.659
978.668
978.673
978.676
978.676
978.672
978.665
978.655
978.64
978.622
978.598
978.57
978.536
978.497
978.45
978.398
978.338
978.272
978.198
978.118
978.03
977.937
977.839
977.736
977.629
977.521
977.411
977.303
977.197
977.095
977
976.912
976.833
976.766
976.712
976.673
976.649
976.642
976.653
976.683
976.732
976.801
976.889
976.997
977.124
977.269
977.433
977.613
977.809
978.02
978.245
978.481
978.729
978.986
979.251
979.523
979.8
980.081
980.366
980.652
980.938
981.224
981.509
981.791
982.069
982.343
982.612
982.875
983.131
983.38
983.62
983.852
984.075
984.288
984.491
984.684
984.865
985.036
985.196
985.344
985.482
985.609
985.725
985.831
985.927
986.014
986.091
986.16
986.22
986.274
986.32
986.36
986.394
986.423
986.447
986.467
986.482
986.493
986.502
986.507
986.509
986.509
986.505
986.5
986.492
986.482
986.468
986.453
986.435
986.414
986.391
986.365
986.336
986.304
986.269
986.231
986.188
986.142
986.09
986.034
985.973
985.905
985.83
985.749
985.657
985.558
985.45
985.328
985.192
985.05
984.89
984.7
984.509
984.32
984.055
983.761
983.569
983.279
982.76
982.517
982.417
981.702
981.195
981.355
980.961
980.648
981.125
1021.15
1020.82
1020.55
1020.64
1019.97
1019.35
1019.21
1018.74
1018.19
1017.85
1017.52
1017.09
1016.7
1016.4
1016.08
1015.74
1015.43
1015.14
1014.85
1014.55
1014.27
1013.99
1013.71
1013.43
1013.14
1012.86
1012.58
1012.29
1011.99
1011.69
1011.38
1011.06
1010.73
1010.39
1010.03
1009.67
1009.29
1008.9
1008.5
1008.08
1007.65
1007.2
1006.74
1006.26
1005.77
1005.26
1004.74
1004.2
1003.64
1003.07
1002.47
1001.86
1001.24
1000.6
999.938
999.263
998.574
997.871
997.155
996.428
995.691
994.945
994.193
993.436
992.677
991.916
991.158
990.402
989.652
988.91
988.177
987.456
986.748
986.055
985.379
984.721
984.081
983.463
982.865
982.289
981.737
981.206
980.7
980.217
979.759
979.324
978.913
978.526
978.163
977.824
977.508
977.215
976.945
976.697
976.471
976.268
976.085
975.923
975.781
975.658
975.555
975.47
975.403
975.352
975.317
975.297
975.292
975.3
975.321
975.354
975.398
975.452
975.515
975.587
975.667
975.753
975.846
975.944
976.047
976.154
976.263
976.375
976.489
976.603
976.718
976.833
976.946
977.058
977.167
977.274
977.378
977.478
977.575
977.668
977.757
977.842
977.923
977.999
978.071
978.138
978.201
978.26
978.315
978.365
978.412
978.454
978.492
978.527
978.557
978.584
978.608
978.628
978.645
978.659
978.669
978.676
978.681
978.681
978.678
978.672
978.662
978.647
978.628
978.604
978.575
978.54
978.499
978.451
978.396
978.335
978.266
978.189
978.106
978.015
977.918
977.815
977.708
977.596
977.483
977.368
977.255
977.143
977.036
976.935
976.842
976.758
976.687
976.628
976.585
976.558
976.549
976.558
976.587
976.635
976.704
976.792
976.901
977.03
977.178
977.344
977.528
977.728
977.943
978.171
978.413
978.665
978.927
979.198
979.475
979.757
980.043
980.332
980.623
980.915
981.205
981.493
981.779
982.06
982.338
982.609
982.875
983.132
983.383
983.625
983.858
984.081
984.295
984.498
984.691
984.872
985.042
985.201
985.349
985.485
985.611
985.726
985.831
985.925
986.01
986.085
986.152
986.211
986.263
986.307
986.345
986.377
986.404
986.425
986.443
986.456
986.466
986.472
986.475
986.475
986.473
986.468
986.461
986.451
986.438
986.423
986.407
986.388
986.367
986.342
986.316
986.287
986.256
986.221
986.183
986.142
986.098
986.048
985.995
985.937
985.873
985.803
985.727
985.643
985.55
985.448
985.34
985.216
985.079
984.942
984.786
984.592
984.411
984.247
983.985
983.698
983.569
983.328
982.843
982.671
982.68
982.249
981.913
982.094
982.27
982.293
1020.67
1020.43
1020.27
1020.03
1019.61
1019.42
1018.98
1018.5
1018.24
1017.91
1017.47
1017.11
1016.83
1016.5
1016.15
1015.85
1015.57
1015.27
1014.97
1014.69
1014.42
1014.14
1013.86
1013.58
1013.3
1013.02
1012.73
1012.44
1012.15
1011.84
1011.53
1011.21
1010.88
1010.54
1010.19
1009.82
1009.44
1009.05
1008.65
1008.23
1007.79
1007.34
1006.88
1006.4
1005.9
1005.39
1004.86
1004.31
1003.75
1003.17
1002.57
1001.95
1001.32
1000.67
999.996
999.311
998.61
997.894
997.165
996.424
995.673
994.912
994.145
993.373
992.598
991.822
991.048
990.278
989.514
988.758
988.012
987.279
986.559
985.856
985.171
984.504
983.857
983.232
982.63
982.051
981.495
980.963
980.456
979.974
979.517
979.084
978.676
978.293
977.933
977.598
977.287
976.998
976.733
976.49
976.27
976.071
975.893
975.736
975.599
975.48
975.381
975.3
975.236
975.188
975.156
975.139
975.137
975.147
975.17
975.205
975.25
975.305
975.37
975.443
975.524
975.611
975.705
975.804
975.908
976.015
976.126
976.239
976.354
976.47
976.586
976.702
976.818
976.932
977.044
977.154
977.261
977.365
977.465
977.562
977.656
977.745
977.831
977.912
977.989
978.062
978.131
978.195
978.255
978.311
978.363
978.41
978.454
978.494
978.529
978.561
978.589
978.613
978.633
978.65
978.663
978.673
978.679
978.681
978.68
978.674
978.664
978.65
978.631
978.606
978.576
978.54
978.498
978.448
978.391
978.327
978.255
978.175
978.088
977.994
977.893
977.785
977.673
977.557
977.439
977.319
977.2
977.083
976.971
976.864
976.766
976.678
976.602
976.539
976.493
976.463
976.451
976.458
976.486
976.534
976.603
976.692
976.803
976.934
977.085
977.254
977.441
977.645
977.865
978.098
978.345
978.602
978.869
979.145
979.428
979.715
980.007
980.301
980.597
980.893
981.188
981.48
981.77
982.054
982.335
982.609
982.877
983.137
983.39
983.633
983.867
984.092
984.306
984.509
984.701
984.882
985.052
985.21
985.357
985.492
985.616
985.729
985.832
985.925
986.008
986.082
986.147
986.204
986.253
986.295
986.331
986.361
986.385
986.405
986.42
986.431
986.439
986.442
986.443
986.441
986.437
986.43
986.421
986.409
986.395
986.379
986.361
986.341
986.319
986.294
986.268
986.239
986.208
986.175
986.138
986.099
986.057
986.01
985.961
985.906
985.848
985.783
985.712
985.637
985.554
985.461
985.363
985.258
985.137
985.005
984.88
984.733
984.547
984.395
984.259
984.011
983.785
983.721
983.508
983.175
983.149
983.138
982.961
983.032
983.24
983.528
1020.11
1020.1
1019.97
1019.59
1019.44
1019.21
1018.76
1018.48
1018.19
1017.8
1017.48
1017.2
1016.87
1016.54
1016.25
1015.97
1015.67
1015.38
1015.11
1014.84
1014.56
1014.29
1014.01
1013.74
1013.46
1013.19
1012.9
1012.61
1012.32
1012.02
1011.71
1011.39
1011.06
1010.71
1010.36
1009.99
1009.61
1009.22
1008.81
1008.39
1007.96
1007.5
1007.04
1006.55
1006.05
1005.54
1005
1004.45
1003.88
1003.29
1002.68
1002.05
1001.41
1000.75
1000.07
999.367
998.652
997.921
997.177
996.419
995.651
994.873
994.089
993.298
992.505
991.712
990.92
990.132
989.351
988.579
987.818
987.07
986.338
985.623
984.926
984.25
983.595
982.963
982.355
981.772
981.213
980.68
980.173
979.691
979.235
978.805
978.401
978.021
977.666
977.336
977.03
976.748
976.488
976.252
976.037
975.844
975.671
975.519
975.387
975.274
975.179
975.102
975.042
974.998
974.969
974.955
974.955
974.968
974.993
975.029
975.076
975.133
975.198
975.273
975.354
975.442
975.537
975.636
975.741
975.849
975.96
976.074
976.19
976.307
976.424
976.542
976.659
976.775
976.89
977.002
977.113
977.22
977.325
977.426
977.525
977.619
977.71
977.797
977.88
977.96
978.035
978.106
978.172
978.235
978.293
978.347
978.397
978.443
978.484
978.521
978.555
978.583
978.609
978.629
978.647
978.66
978.669
978.674
978.674
978.67
978.661
978.647
978.629
978.604
978.573
978.536
978.492
978.44
978.382
978.315
978.24
978.157
978.067
977.968
977.863
977.752
977.635
977.514
977.391
977.266
977.142
977.02
976.903
976.791
976.689
976.596
976.516
976.45
976.401
976.368
976.354
976.36
976.387
976.435
976.504
976.595
976.708
976.841
976.994
977.167
977.358
977.566
977.79
978.029
978.28
978.543
978.816
979.096
979.385
979.678
979.975
980.274
980.574
980.875
981.175
981.471
981.764
982.053
982.337
982.614
982.884
983.146
983.401
983.645
983.881
984.106
984.32
984.523
984.716
984.896
985.065
985.222
985.368
985.502
985.624
985.736
985.837
985.928
986.009
986.08
986.144
986.198
986.246
986.285
986.319
986.346
986.369
986.386
986.399
986.407
986.413
986.414
986.413
986.409
986.403
986.394
986.383
986.369
986.354
986.336
986.317
986.296
986.273
986.249
986.222
986.194
986.164
986.132
986.097
986.06
986.02
985.978
985.932
985.882
985.83
985.772
985.709
985.641
985.569
985.49
985.401
985.31
985.215
985.101
984.981
984.878
984.749
984.58
984.468
984.377
984.167
984.007
984.015
983.9
983.717
983.782
983.931
983.976
984.154
984.638
1019.78
1019.74
1019.6
1019.42
1019.23
1018.89
1018.67
1018.43
1018.06
1017.76
1017.51
1017.2
1016.88
1016.61
1016.34
1016.05
1015.77
1015.5
1015.24
1014.97
1014.7
1014.44
1014.17
1013.9
1013.63
1013.36
1013.08
1012.79
1012.5
1012.2
1011.89
1011.57
1011.24
1010.9
1010.55
1010.18
1009.8
1009.41
1009
1008.58
1008.14
1007.69
1007.22
1006.73
1006.22
1005.7
1005.16
1004.6
1004.02
1003.43
1002.81
1002.17
1001.51
1000.84
1000.14
999.43
998.699
997.952
997.189
996.413
995.626
994.828
994.023
993.212
992.398
991.584
990.772
989.964
989.164
988.373
987.595
986.831
986.083
985.354
984.646
983.959
983.295
982.655
982.042
981.454
980.892
980.358
979.85
979.37
978.916
978.489
978.089
977.714
977.365
977.041
976.741
976.465
976.212
975.982
975.774
975.588
975.422
975.276
975.15
975.042
974.952
974.879
974.824
974.784
974.758
974.748
974.75
974.766
974.793
974.83
974.879
974.937
975.004
975.079
975.161
975.25
975.344
975.444
975.549
975.657
975.768
975.883
975.999
976.117
976.236
976.355
976.473
976.591
976.708
976.823
976.936
977.047
977.156
977.261
977.364
977.464
977.561
977.654
977.744
977.83
977.912
977.99
978.064
978.134
978.2
978.261
978.318
978.371
978.42
978.464
978.503
978.538
978.569
978.596
978.618
978.635
978.648
978.656
978.66
978.658
978.652
978.639
978.621
978.596
978.566
978.527
978.482
978.429
978.368
978.299
978.221
978.136
978.042
977.94
977.831
977.716
977.595
977.47
977.342
977.213
977.084
976.958
976.836
976.72
976.614
976.517
976.434
976.365
976.313
976.278
976.264
976.268
976.295
976.343
976.413
976.505
976.62
976.755
976.911
977.087
977.282
977.495
977.723
977.966
978.223
978.491
978.769
979.055
979.348
979.646
979.949
980.253
980.558
980.863
981.167
981.468
981.765
982.057
982.344
982.624
982.896
983.161
983.416
983.662
983.898
984.124
984.339
984.542
984.734
984.914
985.082
985.238
985.383
985.515
985.636
985.746
985.845
985.934
986.013
986.083
986.143
986.196
986.241
986.279
986.31
986.335
986.355
986.37
986.38
986.387
986.39
986.389
986.386
986.38
986.371
986.36
986.347
986.332
986.315
986.296
986.276
986.254
986.231
986.206
986.18
986.152
986.124
986.093
986.061
986.026
985.99
985.952
985.911
985.867
985.82
985.77
985.716
985.658
985.595
985.53
985.459
985.378
985.3
985.22
985.119
985.02
984.947
984.842
984.71
984.651
984.6
984.461
984.404
984.457
984.443
984.461
984.626
984.833
985.11
985.565
1019.53
1019.42
1019.3
1019.21
1018.99
1018.74
1018.56
1018.27
1018
1017.77
1017.48
1017.19
1016.93
1016.67
1016.39
1016.13
1015.87
1015.61
1015.35
1015.1
1014.84
1014.59
1014.33
1014.06
1013.8
1013.53
1013.26
1012.98
1012.69
1012.39
1012.08
1011.77
1011.44
1011.1
1010.75
1010.38
1010
1009.61
1009.2
1008.78
1008.34
1007.88
1007.41
1006.92
1006.41
1005.88
1005.34
1004.77
1004.18
1003.58
1002.95
1002.3
1001.63
1000.94
1000.23
999.5
998.751
997.985
997.202
996.405
995.596
994.776
993.947
993.113
992.276
991.438
990.602
989.772
988.95
988.139
987.341
986.558
985.794
985.05
984.328
983.63
982.956
982.309
981.689
981.097
980.532
979.997
979.489
979.011
978.56
978.138
977.742
977.373
977.031
976.714
976.421
976.153
975.908
975.686
975.486
975.307
975.148
975.009
974.889
974.787
974.703
974.636
974.585
974.549
974.528
974.52
974.526
974.544
974.573
974.613
974.663
974.722
974.789
974.865
974.947
975.036
975.131
975.231
975.335
975.444
975.555
975.669
975.786
975.904
976.023
976.142
976.262
976.381
976.5
976.617
976.733
976.847
976.959
977.069
977.177
977.282
977.385
977.484
977.58
977.673
977.762
977.848
977.93
978.008
978.082
978.152
978.217
978.278
978.334
978.385
978.433
978.475
978.513
978.546
978.574
978.597
978.615
978.628
978.636
978.638
978.634
978.624
978.607
978.584
978.553
978.515
978.469
978.415
978.352
978.281
978.201
978.113
978.016
977.912
977.799
977.681
977.556
977.427
977.296
977.163
977.03
976.9
976.775
976.656
976.546
976.447
976.361
976.29
976.237
976.2
976.184
976.189
976.215
976.263
976.335
976.428
976.544
976.682
976.841
977.021
977.219
977.435
977.668
977.916
978.177
978.45
978.733
979.024
979.322
979.625
979.933
980.241
980.551
980.86
981.168
981.473
981.773
982.069
982.358
982.641
982.915
983.181
983.439
983.686
983.923
984.148
984.364
984.567
984.758
984.937
985.105
985.259
985.402
985.533
985.653
985.761
985.858
985.945
986.022
986.089
986.147
986.197
986.24
986.276
986.305
986.327
986.345
986.357
986.366
986.37
986.37
986.367
986.362
986.354
986.343
986.33
986.315
986.299
986.28
986.26
986.24
986.217
986.194
986.169
986.143
986.117
986.089
986.06
986.031
985.999
985.967
985.933
985.898
985.86
985.82
985.778
985.733
985.686
985.635
985.581
985.527
985.467
985.4
985.34
985.281
985.2
985.131
985.094
985.023
984.939
984.938
984.943
984.892
984.926
985.058
985.162
985.309
985.587
985.926
986.386
1019.26
1019.2
1019.11
1018.96
1018.79
1018.64
1018.41
1018.16
1017.97
1017.72
1017.44
1017.21
1016.97
1016.7
1016.45
1016.21
1015.96
1015.71
1015.47
1015.22
1014.98
1014.73
1014.48
1014.23
1013.97
1013.71
1013.44
1013.16
1012.88
1012.58
1012.28
1011.97
1011.64
1011.31
1010.96
1010.59
1010.21
1009.82
1009.41
1008.99
1008.55
1008.09
1007.62
1007.12
1006.61
1006.08
1005.53
1004.95
1004.36
1003.74
1003.1
1002.44
1001.76
1001.05
1000.32
999.576
998.807
998.02
997.215
996.394
995.56
994.715
993.86
993
992.136
991.272
990.41
989.555
988.708
987.873
987.054
986.251
985.468
984.708
983.972
983.261
982.577
981.922
981.296
980.7
980.133
979.597
979.091
978.615
978.169
977.752
977.362
977.001
976.666
976.357
976.073
975.814
975.578
975.365
975.173
975.003
974.852
974.721
974.608
974.513
974.436
974.374
974.328
974.297
974.28
974.277
974.285
974.306
974.337
974.379
974.43
974.49
974.559
974.635
974.717
974.806
974.901
975.001
975.104
975.212
975.323
975.437
975.553
975.671
975.79
975.91
976.03
976.15
976.269
976.388
976.507
976.624
976.74
976.853
976.966
977.076
977.184
977.29
977.393
977.492
977.589
977.683
977.773
977.859
977.941
978.019
978.093
978.162
978.227
978.287
978.343
978.393
978.439
978.479
978.515
978.545
978.569
978.588
978.601
978.607
978.608
978.601
978.587
978.566
978.536
978.499
978.453
978.399
978.335
978.263
978.181
978.091
977.992
977.885
977.77
977.649
977.522
977.39
977.256
977.12
976.985
976.852
976.725
976.603
976.491
976.39
976.303