# vtk DataFile Version 2.0
LBE mesh
ASCII
DATASET STRUCTURED_POINTS
DIMENSIONS 300 100 1
ASPECT_RATIO 1 1 1
ORIGIN 0 0 0
POINT_DATA 30000
SCALARS rho double 1
LOOKUP_TABLE default
1046.86
1015.15
1014.42
1020.87
1019.02
1015.09
1014.87
1015.35
1014.55
1013.73
1013.53
1013.34
1012.93
1012.59
1012.36
1012.11
1011.83
1011.57
1011.33
1011.08
1010.82
1010.57
1010.31
1010.05
1009.78
1009.51
1009.23
1008.94
1008.64
1008.34
1008.02
1007.69
1007.36
1007.01
1006.65
1006.27
1005.88
1005.48
1005.06
1004.63
1004.18
1003.71
1003.23
1002.73
1002.21
1001.68
1001.12
1000.55
999.957
999.347
998.718
998.07
997.405
996.721
996.021
995.303
994.57
993.822
993.061
992.286
991.501
990.706
989.903
989.095
988.281
987.466
986.65
985.835
985.025
984.219
983.422
982.635
981.859
981.097
980.351
979.622
978.912
978.221
977.552
976.905
976.282
975.683
975.109
974.559
974.036
973.538
973.066
972.619
972.198
971.802
971.431
971.085
970.761
970.462
970.186
969.932
969.699
969.487
969.295
969.123
968.97
968.835
968.717
968.616
968.532
968.463
968.409
968.37
968.345
968.334
968.336
968.35
968.376
968.414
968.463
968.523
968.594
968.675
968.766
968.867
968.977
969.096
969.224
969.36
969.505
969.659
969.821
969.991
970.169
970.356
970.55
970.752
970.962
971.181
971.407
971.641
971.884
972.135
972.394
972.662
972.938
973.223
973.516
973.817
974.127
974.445
974.771
975.105
975.447
975.796
976.152
976.514
976.882
977.256
977.634
978.017
978.404
978.793
979.183
979.576
979.968
980.359
980.749
981.136
981.52
981.9
982.274
982.641
983.002
983.355
983.699
984.033
984.358
984.671
984.973
985.263
985.541
985.805
986.056
986.294
986.518
986.728
986.924
987.105
987.273
987.426
987.564
987.688
987.798
987.893
987.974
988.04
988.091
988.126
988.147
988.151
988.138
988.11
988.063
987.999
987.916
987.814
987.693
987.553
987.393
987.213
987.014
986.795
986.557
986.301
986.028
985.738
985.434
985.116
984.788
984.449
984.103
983.752
983.399
983.046
982.695
982.351
982.014
981.688
981.375
981.079
980.801
980.544
980.309
980.098
979.913
979.754
979.623
979.519
979.444
979.397
979.376
979.384
979.416
979.472
979.552
979.651
979.771
979.906
980.057
980.219
980.391
980.571
980.756
980.943
981.13
981.315
981.496
981.671
981.838
981.995
982.142
982.276
982.397
982.504
982.596
982.673
982.734
982.779
982.808
982.822
982.82
982.803
982.771
982.725
982.665
982.592
982.506
982.408
982.297
982.174
982.039
981.893
981.733
981.562
981.378
981.176
980.957
980.729
980.475
980.179
979.878
979.574
979.158
978.665
978.321
977.85
976.801
976.088
976.215
974.251
970.464
972.558
973.41
949.935
1029.75
1026.19
1022.09
1016.87
1017.03
1017.17
1015.97
1014.78
1014.52
1014.24
1013.73
1013.3
1013.04
1012.75
1012.43
1012.15
1011.89
1011.63
1011.36
1011.11
1010.85
1010.59
1010.33
1010.06
1009.79
1009.51
1009.23
1008.94
1008.64
1008.33
1008.01
1007.68
1007.34
1006.99
1006.63
1006.25
1005.86
1005.45
1005.03
1004.6
1004.15
1003.68
1003.19
1002.69
1002.17
1001.63
1001.08
1000.5
999.912
999.301
998.671
998.022
997.356
996.673
995.972
995.255
994.522
993.775
993.014
992.241
991.457
990.664
989.864
989.057
988.246
987.432
986.619
985.808
985
984.198
983.405
982.621
981.849
981.09
980.348
979.622
978.916
978.229
977.563
976.92
976.3
975.704
975.133
974.587
974.066
973.57
973.101
972.657
972.238
971.844
971.475
971.13
970.809
970.51
970.236
969.982
969.751
969.54
969.349
969.177
969.024
968.89
968.772
968.672
968.588
968.519
968.466
968.427
968.402
968.39
968.392
968.406
968.432
968.47
968.519
968.579
968.649
968.73
968.82
968.92
969.03
969.148
969.275
969.411
969.556
969.708
969.869
970.038
970.216
970.401
970.594
970.795
971.004
971.221
971.447
971.68
971.921
972.171
972.428
972.695
972.969
973.253
973.544
973.844
974.152
974.468
974.793
975.125
975.465
975.812
976.166
976.526
976.893
977.265
977.642
978.023
978.408
978.795
979.185
979.576
979.966
980.356
980.745
981.131
981.514
981.893
982.266
982.633
982.993
983.345
983.689
984.023
984.347
984.66
984.962
985.252
985.529
985.794
986.046
986.283
986.507
986.717
986.913
987.095
987.262
987.415
987.554
987.678
987.788
987.883
987.964
988.03
988.081
988.117
988.138
988.142
988.131
988.103
988.058
987.995
987.913
987.813
987.695
987.557
987.399
987.222
987.025
986.809
986.574
986.321
986.05
985.764
985.462
985.147
984.821
984.484
984.141
983.791
983.439
983.087
982.737
982.392
982.055
981.728
981.414
981.117
980.837
980.577
980.34
980.126
979.937
979.775
979.641
979.534
979.455
979.404
979.38
979.383
979.412
979.465
979.541
979.638
979.754
979.887
980.035
980.195
980.365
980.543
980.726
980.911
981.097
981.282
981.463
981.637
981.804
981.962
982.11
982.244
982.366
982.474
982.567
982.645
982.706
982.753
982.783
982.797
982.796
982.779
982.748
982.702
982.642
982.568
982.482
982.382
982.27
982.146
982.009
981.86
981.699
981.524
981.334
981.131
980.91
980.666
980.407
980.127
979.801
979.44
979.085
978.65
978.068
977.529
977.053
976.045
974.751
974.261
973.129
969.023
965.289
963.321
1021.65
1026.44
1021.76
1017.44
1017.66
1017.36
1015.95
1014.98
1014.76
1014.38
1013.83
1013.42
1013.14
1012.83
1012.51
1012.22
1011.95
1011.68
1011.41
1011.15
1010.89
1010.63
1010.36
1010.09
1009.81
1009.53
1009.25
1008.95
1008.65
1008.34
1008.02
1007.69
1007.34
1006.99
1006.62
1006.24
1005.85
1005.44
1005.02
1004.58
1004.13
1003.66
1003.17
1002.67
1002.15
1001.61
1001.05
1000.48
999.883
999.271
998.639
997.99
997.322
996.637
995.935
995.217
994.484
993.735
992.974
992.2
991.416
990.622
989.822
989.015
988.204
987.391
986.578
985.767
984.961
984.16
983.368
982.586
981.815
981.059
980.319
979.596
978.891
978.207
977.545
976.904
976.287
975.694
975.126
974.583
974.065
973.572
973.105
972.664
972.248
971.856
971.49
971.147
970.828
970.532
970.259
970.008
969.778
969.569
969.379
969.209
969.058
968.924
968.808
968.708
968.625
968.558
968.505
968.467
968.442
968.432
968.433
968.448
968.474
968.512
968.561
968.621
968.692
968.772
968.863
968.962
969.072
969.19
969.317
969.452
969.596
969.748
969.909
970.077
970.253
970.437
970.63
970.83
971.038
971.254
971.478
971.71
971.95
972.198
972.455
972.719
972.993
973.274
973.564
973.862
974.169
974.484
974.807
975.138
975.476
975.822
976.174
976.534
976.899
977.27
977.646
978.026
978.41
978.797
979.186
979.576
979.966
980.356
980.744
981.13
981.512
981.891
982.264
982.631
982.991
983.344
983.688
984.022
984.347
984.66
984.962
985.253
985.531
985.795
986.047
986.285
986.51
986.72
986.916
987.098
987.265
987.418
987.557
987.681
987.791
987.886
987.967
988.034
988.085
988.122
988.143
988.149
988.139
988.112
988.068
988.007
987.927
987.83
987.713
987.577
987.422
987.247
987.053
986.84
986.607
986.356
986.087
985.802
985.501
985.187
984.861
984.525
984.181
983.83
983.477
983.123
982.77
982.423
982.083
981.753
981.435
981.134
980.85
980.587
980.345
980.127
979.934
979.768
979.63
979.519
979.437
979.382
979.356
979.356
979.382
979.434
979.507
979.603
979.718
979.85
979.998
980.158
980.328
980.506
980.69
980.877
981.064
981.249
981.432
981.608
981.777
981.936
982.085
982.222
982.345
982.455
982.55
982.628
982.691
982.739
982.77
982.785
982.784
982.768
982.736
982.69
982.63
982.555
982.468
982.367
982.254
982.128
981.99
981.839
981.675
981.498
981.305
981.099
980.879
980.631
980.36
980.087
979.771
979.378
979.003
978.652
978.052
977.324
977.021
976.401
974.477
973.681
974.593
970.361
964.851
968.977
1021.37
1020.09
1019.54
1020.7
1018.18
1016.06
1016
1015.89
1014.96
1014.23
1013.97
1013.68
1013.25
1012.89
1012.61
1012.33
1012.03
1011.75
1011.48
1011.22
1010.94
1010.68
1010.41
1010.13
1009.85
1009.57
1009.28
1008.98
1008.68
1008.37
1008.04
1007.71
1007.37
1007.01
1006.64
1006.26
1005.86
1005.46
1005.03
1004.59
1004.14
1003.66
1003.18
1002.67
1002.15
1001.61
1001.05
1000.47
999.871
999.256
998.622
997.97
997.3
996.612
995.907
995.186
994.45
993.699
992.934
992.158
991.37
990.574
989.77
988.961
988.148
987.332
986.518
985.705
984.897
984.096
983.302
982.52
981.749
980.994
980.254
979.532
978.829
978.147
977.486
976.849
976.234
975.644
975.079
974.539
974.024
973.535
973.072
972.634
972.221
971.833
971.47
971.13
970.815
970.522
970.252
970.003
969.775
969.569
969.382
969.214
969.064
968.932
968.818
968.721
968.639
968.573
968.521
968.484
968.461
968.451
968.454
968.47
968.497
968.536
968.586
968.646
968.717
968.798
968.889
968.99
969.099
969.217
969.344
969.479
969.623
969.776
969.936
970.104
970.28
970.463
970.655
970.854
971.062
971.277
971.5
971.731
971.97
972.217
972.473
972.736
973.009
973.289
973.578
973.875
974.18
974.494
974.816
975.146
975.483
975.828
976.18
976.539
976.904
977.274
977.649
978.029
978.413
978.8
979.188
979.579
979.969
980.359
980.748
981.134
981.517
981.896
982.27
982.638
982.999
983.352
983.697
984.032
984.357
984.671
984.974
985.265
985.544
985.809
986.062
986.3
986.525
986.735
986.932
987.114
987.281
987.435
987.574
987.698
987.808
987.903
987.984
988.051
988.103
988.14
988.163
988.169
988.16
988.135
988.093
988.033
987.957
987.861
987.747
987.614
987.461
987.288
987.096
986.884
986.653
986.402
986.134
985.849
985.548
985.233
984.905
984.567
984.22
983.866
983.509
983.15
982.793
982.44
982.095
981.759
981.436
981.129
980.839
980.57
980.323
980.1
979.903
979.732
979.589
979.475
979.39
979.333
979.304
979.303
979.328
979.378
979.452
979.548
979.664
979.797
979.946
980.108
980.281
980.462
980.648
980.837
981.028
981.217
981.402
981.582
981.754
981.916
982.068
982.207
982.334
982.446
982.542
982.623
982.688
982.736
982.768
982.784
982.784
982.767
982.736
982.689
982.628
982.553
982.464
982.363
982.248
982.121
981.981
981.829
981.663
981.486
981.294
981.083
980.859
980.622
980.353
980.051
979.751
979.424
978.982
978.531
978.181
977.585
976.662
976.217
975.839
973.975
972.39
972.583
971.786
970.034
1021.36
1019.17
1019.08
1018.96
1017.46
1017.03
1016.45
1015.57
1014.94
1014.62
1014.22
1013.74
1013.36
1013.06
1012.75
1012.43
1012.13
1011.86
1011.58
1011.3
1011.03
1010.76
1010.48
1010.2
1009.92
1009.64
1009.34
1009.04
1008.73
1008.42
1008.09
1007.76
1007.41
1007.05
1006.68
1006.3
1005.9
1005.49
1005.06
1004.62
1004.16
1003.69
1003.2
1002.69
1002.16
1001.62
1001.06
1000.48
999.875
999.256
998.618
997.961
997.287
996.594
995.885
995.158
994.417
993.66
992.89
992.108
991.315
990.513
989.704
988.889
988.07
987.25
986.431
985.614
984.802
983.997
983.201
982.415
981.643
980.886
980.146
979.424
978.721
978.04
977.381
976.745
976.133
975.546
974.984
974.448
973.937
973.452
972.993
972.559
972.15
971.767
971.408
971.073
970.761
970.472
970.206
969.961
969.737
969.534
969.35
969.185
969.038
968.91
968.798
968.703
968.623
968.559
968.51
968.475
968.453
968.445
968.45
968.467
968.496
968.536
968.587
968.649
968.721
968.804
968.896
968.997
969.107
969.226
969.354
969.49
969.635
969.788
969.948
970.117
970.293
970.477
970.668
970.868
971.075
971.29
971.513
971.744
971.982
972.229
972.484
972.747
973.018
973.298
973.586
973.883
974.188
974.501
974.822
975.152
975.489
975.834
976.185
976.544
976.909
977.279
977.655
978.035
978.419
978.807
979.196
979.587
979.978
980.369
980.759
981.146
981.53
981.91
982.285
982.654
983.016
983.37
983.716
984.052
984.379
984.694
984.998
985.29
985.569
985.836
986.089
986.328
986.553
986.764
986.961
987.143
987.311
987.464
987.603
987.727
987.837
987.933
988.014
988.081
988.134
988.172
988.195
988.203
988.195
988.172
988.132
988.074
988
987.906
987.794
987.663
987.512
987.341
987.15
986.939
986.708
986.458
986.189
985.903
985.599
985.281
984.949
984.607
984.254
983.895
983.532
983.166
982.802
982.442
982.089
981.745
981.415
981.101
980.804
980.528
980.274
980.046
979.843
979.668
979.521
979.404
979.316
979.257
979.227
979.225
979.25
979.301
979.377
979.475
979.593
979.729
979.881
980.047
980.224
980.409
980.6
980.794
980.989
981.183
981.372
981.557
981.733
981.9
982.056
982.199
982.329
982.444
982.543
982.626
982.693
982.743
982.776
982.793
982.793
982.777
982.745
982.698
982.636
982.56
982.471
982.369
982.253
982.125
981.985
981.832
981.667
981.488
981.298
981.091
980.863
980.624
980.373
980.077
979.751
979.449
979.087
978.572
978.147
977.834
977.029
976.088
976.054
975.338
973.203
973.056
973.307
971.697
1019.27
1019.28
1018.85
1017.36
1017.48
1017.31
1016.12
1015.47
1015.28
1014.84
1014.23
1013.85
1013.57
1013.22
1012.86
1012.56
1012.28
1011.98
1011.69
1011.41
1011.14
1010.86
1010.58
1010.3
1010.02
1009.73
1009.43
1009.13
1008.82
1008.5
1008.17
1007.83
1007.48
1007.12
1006.75
1006.37
1005.97
1005.55
1005.12
1004.68
1004.22
1003.74
1003.25
1002.73
1002.2
1001.66
1001.09
1000.5
999.896
999.271
998.628
997.965
997.283
996.584
995.867
995.133
994.384
993.619
992.841
992.05
991.248
990.438
989.62
988.796
987.97
987.141
986.314
985.49
984.672
983.861
983.059
982.269
981.493
980.733
979.99
979.266
978.563
977.882
977.224
976.59
975.98
975.396
974.838
974.305
973.799
973.318
972.864
972.435
972.032
971.654
971.301
970.971
970.664
970.381
970.119
969.879
969.66
969.461
969.281
969.119
968.976
968.851
968.743
968.65
968.574
968.512
968.466
968.433
968.414
968.408
968.415
968.434
968.465
968.507
968.561
968.625
968.699
968.783
968.877
968.98
969.092
969.213
969.343
969.481
969.627
969.781
969.943
970.113
970.29
970.476
970.668
970.869
971.077
971.293
971.516
971.748
971.987
972.234
972.489
972.753
973.025
973.305
973.593
973.89
974.195
974.509
974.83
975.16
975.497
975.843
976.195
976.554
976.919
977.29
977.667
978.048
978.433
978.821
979.212
979.604
979.997
980.389
980.779
981.168
981.553
981.935
982.311
982.681
983.045
983.4
983.747
984.085
984.412
984.729
985.034
985.327
985.607
985.874
986.128
986.368
986.593
986.805
987.002
987.185
987.353
987.506
987.645
987.769
987.879
987.975
988.057
988.124
988.177
988.216
988.24
988.249
988.243
988.221
988.182
988.127
988.054
987.962
987.852
987.723
987.573
987.403
987.213
987.001
986.77
986.519
986.248
985.958
985.651
985.328
984.991
984.642
984.282
983.915
983.543
983.169
982.796
982.426
982.064
981.712
981.373
981.049
980.745
980.461
980.201
979.966
979.758
979.578
979.428
979.307
979.217
979.157
979.127
979.125
979.152
979.205
979.283
979.384
979.506
979.647
979.804
979.975
980.157
980.348
980.545
980.745
980.946
981.146
981.342
981.532
981.714
981.887
982.047
982.195
982.329
982.448
982.55
982.637
982.706
982.758
982.792
982.81
982.811
982.795
982.763
982.716
982.654
982.578
982.488
982.385
982.27
982.142
982.001
981.849
981.686
981.508
981.317
981.116
980.898
980.654
980.4
980.143
979.828
979.468
979.165
978.812
978.235
977.769
977.544
976.773
975.746
975.635
975.337
974.167
973.56
973.839
1018.22
1018.6
1018.11
1017.45
1017.25
1016.49
1016.11
1015.84
1015.26
1014.71
1014.4
1014.09
1013.68
1013.31
1013.02
1012.73
1012.42
1012.12
1011.84
1011.56
1011.27
1010.99
1010.71
1010.43
1010.14
1009.85
1009.55
1009.24
1008.93
1008.61
1008.28
1007.94
1007.59
1007.22
1006.85
1006.46
1006.06
1005.64
1005.21
1004.76
1004.3
1003.82
1003.32
1002.8
1002.27
1001.71
1001.14
1000.55
999.934
999.302
998.65
997.979
997.29
996.581
995.854
995.11
994.35
993.575
992.785
991.983
991.17
990.347
989.517
988.682
987.844
987.005
986.168
985.334
984.506
983.686
982.877
982.08
981.298
980.533
979.787
979.06
978.356
977.674
977.016
976.382
975.775
975.194
974.639
974.111
973.609
973.134
972.685
972.263
971.866
971.494
971.147
970.823
970.523
970.245
969.99
969.755
969.541
969.347
969.172
969.015
968.876
968.755
968.65
968.561
968.488
968.43
968.386
968.356
968.34
968.337
968.347
968.368
968.402
968.447
968.503
968.569
968.646
968.733
968.83
968.936
969.051
969.175
969.308
969.448
969.598
969.754
969.919
970.092
970.272
970.459
970.655
970.858
971.068
971.286
971.512
971.745
971.986
972.235
972.492
972.757
973.03
973.311
973.601
973.899
974.206
974.52
974.843
975.174
975.513
975.859
976.213
976.573
976.94
977.312
977.69
978.072
978.458
978.848
979.24
979.633
980.027
980.42
980.813
981.202
981.589
981.972
982.35
982.721
983.086
983.443
983.791
984.13
984.458
984.776
985.082
985.376
985.657
985.925
986.179
986.419
986.646
986.858
987.055
987.238
987.406
987.56
987.698
987.823
987.933
988.029
988.11
988.178
988.232
988.271
988.295
988.305
988.3
988.279
988.242
988.188
988.117
988.027
987.918
987.789
987.641
987.471
987.281
987.068
986.835
986.581
986.307
986.013
985.7
985.371
985.027
984.669
984.301
983.924
983.542
983.158
982.774
982.394
982.021
981.659
981.309
980.977
980.663
980.372
980.105
979.863
979.65
979.466
979.312
979.189
979.097
979.037
979.007
979.007
979.035
979.091
979.173
979.278
979.405
979.551
979.715
979.892
980.081
980.279
980.483
980.69
980.899
981.106
981.309
981.506
981.695
981.873
982.04
982.194
982.332
982.456
982.562
982.652
982.724
982.779
982.815
982.835
982.836
982.821
982.791
982.744
982.682
982.606
982.516
982.413
982.298
982.171
982.033
981.881
981.72
981.548
981.36
981.159
980.951
980.723
980.464
980.205
979.944
979.605
979.236
978.958
978.577
977.968
977.613
977.388
976.556
975.911
975.9
975.35
974.872
975.137
1017.95
1017.63
1017.39
1017.5
1016.85
1016.25
1016.14
1015.69
1015.16
1014.85
1014.55
1014.13
1013.77
1013.48
1013.18
1012.85
1012.55
1012.28
1011.99
1011.7
1011.42
1011.14
1010.86
1010.57
1010.28
1009.99
1009.69
1009.38
1009.06
1008.74
1008.41
1008.07
1007.71
1007.35
1006.97
1006.58
1006.17
1005.75
1005.32
1004.87
1004.4
1003.91
1003.41
1002.89
1002.35
1001.79
1001.21
1000.61
999.989
999.348
998.687
998.006
997.305
996.585
995.847
995.09
994.316
993.527
992.723
991.907
991.079
990.242
989.397
988.548
987.695
986.842
985.991
985.145
984.305
983.474
982.655
981.849
981.059
980.288
979.536
978.806
978.098
977.415
976.757
976.125
975.52
974.941
974.39
973.867
973.37
972.902
972.459
972.043
971.654
971.289
970.949
970.632
970.339
970.068
969.819
969.59
969.382
969.194
969.024
968.872
968.738
968.621
968.52
968.435
968.366
968.311
968.271
968.244
968.231
968.23
968.243
968.267
968.304
968.352
968.411
968.481
968.562
968.652
968.752
968.862
968.981
969.109
969.246
969.391
969.544
969.705
969.874
970.051
970.236
970.427
970.627
970.834
971.048
971.27
971.5
971.737
971.981
972.233
972.493
972.762
973.038
973.322
973.615
973.915
974.224
974.541
974.866
975.199
975.54
975.888
976.244
976.606
976.974
977.348
977.728
978.112
978.5
978.891
979.283
979.678
980.073
980.468
980.861
981.252
981.64
982.024
982.402
982.775
983.14
983.498
983.847
984.187
984.516
984.835
985.141
985.436
985.717
985.986
986.241
986.481
986.708
986.92
987.118
987.301
987.469
987.622
987.761
987.885
987.996
988.091
988.173
988.24
988.294
988.333
988.359
988.369
988.364
988.344
988.308
988.255
988.185
988.096
987.988
987.859
987.711
987.541
987.349
987.135
986.899
986.642
986.362
986.063
985.744
985.407
985.054
984.687
984.308
983.921
983.528
983.132
982.736
982.345
981.96
981.587
981.228
980.885
980.563
980.263
979.988
979.741
979.522
979.334
979.177
979.052
978.959
978.899
978.87
978.871
978.903
978.962
979.049
979.159
979.292
979.444
979.614
979.799
979.996
980.202
980.414
980.63
980.847
981.062
981.273
981.478
981.674
981.86
982.034
982.193
982.338
982.466
982.578
982.671
982.747
982.805
982.844
982.865
982.869
982.855
982.825
982.78
982.719
982.643
982.555
982.454
982.34
982.215
982.079
981.932
981.772
981.604
981.425
981.23
981.021
980.81
980.578
980.307
980.045
979.794
979.441
979.056
978.814
978.457
977.845
977.523
977.37
976.775
976.255
976.243
976.229
976.038
1017.48
1017.27
1017.13
1016.92
1016.52
1016.36
1015.94
1015.48
1015.25
1014.93
1014.52
1014.18
1013.92
1013.61
1013.27
1012.99
1012.71
1012.42
1012.13
1011.86
1011.58
1011.3
1011.01
1010.73
1010.44
1010.14
1009.84
1009.53
1009.22
1008.9
1008.56
1008.22
1007.86
1007.5
1007.12
1006.72
1006.32
1005.89
1005.45
1005
1004.53
1004.04
1003.53
1003
1002.45
1001.89
1001.3
1000.69
1000.06
999.409
998.737
998.044
997.33
996.597
995.844
995.072
994.282
993.477
992.656
991.823
990.977
990.122
989.26
988.393
987.523
986.654
985.786
984.924
984.07
983.225
982.394
981.578
980.778
979.999
979.241
978.505
977.795
977.109
976.45
975.819
975.216
974.641
974.094
973.576
973.086
972.623
972.188
971.78
971.397
971.041
970.709
970.4
970.115
969.851
969.609
969.388
969.187
969.004
968.84
968.694
968.565
968.452
968.356
968.275
968.209
968.157
968.12
968.096
968.086
968.089
968.104
968.132
968.172
968.223
968.286
968.359
968.444
968.538
968.643
968.758
968.881
969.014
969.156
969.307
969.466
969.633
969.808
969.991
970.181
970.379
970.585
970.798
971.018
971.246
971.481
971.724
971.974
972.231
972.497
972.77
973.051
973.339
973.636
973.941
974.254
974.574
974.903
975.239
975.583
975.934
976.292
976.656
977.027
977.403
977.785
978.171
978.56
978.952
979.346
979.742
980.138
980.533
980.927
981.319
981.708
982.091
982.47
982.843
983.209
983.567
983.917
984.256
984.585
984.904
985.211
985.505
985.787
986.055
986.31
986.551
986.777
986.989
987.187
987.37
987.538
987.691
987.83
987.954
988.064
988.16
988.241
988.309
988.362
988.401
988.427
988.437
988.433
988.413
988.377
988.324
988.254
988.165
988.057
987.929
987.779
987.608
987.414
987.197
986.958
986.696
986.411
986.105
985.778
985.433
985.07
984.693
984.304
983.905
983.5
983.091
982.684
982.28
981.884
981.499
981.129
980.777
980.446
980.138
979.856
979.602
979.379
979.186
979.026
978.899
978.806
978.746
978.718
978.722
978.756
978.82
978.911
979.027
979.167
979.326
979.504
979.697
979.902
980.117
980.338
980.563
980.789
981.013
981.233
981.447
981.651
981.845
982.026
982.193
982.344
982.478
982.595
982.693
982.773
982.834
982.877
982.901
982.907
982.896
982.867
982.823
982.764
982.691
982.605
982.506
982.395
982.273
982.14
981.998
981.845
981.68
981.508
981.327
981.126
980.914
980.705
980.47
980.192
979.941
979.697
979.335
978.98
978.769
978.404
977.904
977.682
977.469
977.083
976.932
976.932
976.992
1016.95
1016.97
1016.86
1016.51
1016.38
1016.18
1015.75
1015.49
1015.23
1014.86
1014.56
1014.29
1013.99
1013.67
1013.4
1013.13
1012.84
1012.55
1012.28
1012.01
1011.73
1011.45
1011.18
1010.89
1010.6
1010.31
1010.01
1009.7
1009.39
1009.06
1008.73
1008.39
1008.03
1007.66
1007.28
1006.89
1006.48
1006.05
1005.61
1005.15
1004.67
1004.18
1003.66
1003.13
1002.58
1002
1001.4
1000.79
1000.15
999.483
998.799
998.093
997.365
996.616
995.846
995.057
994.25
993.426
992.585
991.732
990.866
989.991
989.107
988.22
987.33
986.44
985.554
984.674
983.802
982.942
982.096
981.267
980.457
979.668
978.902
978.161
977.446
976.758
976.098
975.468
974.867
974.295
973.754
973.241
972.757
972.303
971.876
971.476
971.102
970.754
970.431
970.131
969.855
969.6
969.365
969.152
968.957
968.782
968.623
968.483
968.359
968.251
968.159
968.082
968.02
967.971
967.937
967.916
967.909
967.915
967.933
967.964
968.006
968.061
968.127
968.205
968.293
968.393
968.502
968.622
968.751
968.891
969.039
969.196
969.362
969.537
969.719
969.91
970.108
970.315
970.528
970.75
970.978
971.214
971.457
971.707
971.965
972.23
972.503
972.783
973.071
973.366
973.669
973.979
974.297
974.623
974.957
975.297
975.645
976
976.361
976.729
977.102
977.481
977.864
978.252
978.642
979.036
979.431
979.827
980.224
980.62
981.014
981.405
981.793
982.177
982.555
982.928
983.293
983.65
983.998
984.337
984.666
984.983
985.289
985.583
985.863
986.131
986.385
986.625
986.851
987.062
987.259
987.441
987.609
987.762
987.9
988.024
988.134
988.229
988.31
988.377
988.43
988.47
988.494
988.504
988.5
988.479
988.443
988.39
988.319
988.23
988.121
987.992
987.841
987.668
987.471
987.251
987.008
986.74
986.45
986.136
985.802
985.447
985.075
984.686
984.285
983.875
983.457
983.037
982.617
982.202
981.794
981.398
981.017
980.655
980.315
979.999
979.71
979.451
979.222
979.026
978.863
978.735
978.641
978.581
978.554
978.561
978.599
978.667
978.764
978.886
979.032
979.199
979.385
979.587
979.801
980.025
980.255
980.49
980.726
980.96
981.189
981.412
981.626
981.828
982.017
982.191
982.349
982.49
982.613
982.717
982.802
982.867
982.913
982.941
982.95
982.941
982.916
982.875
982.818
982.748
982.665
982.569
982.462
982.345
982.217
982.08
981.935
981.779
981.612
981.439
981.259
981.056
980.844
980.643
980.409
980.128
979.892
979.666
979.309
978.984
978.805
978.493
978.093
977.921
977.825
977.62
977.566
977.797
1016.66
1016.64
1016.52
1016.37
1016.21
1015.89
1015.69
1015.48
1015.13
1014.85
1014.62
1014.33
1014.03
1013.77
1013.51
1013.23
1012.95
1012.69
1012.43
1012.15
1011.88
1011.61
1011.34
1011.06
1010.77
1010.48
1010.18
1009.88
1009.56
1009.24
1008.91
1008.56
1008.21
1007.84
1007.46
1007.06
1006.65
1006.22
1005.78
1005.32
1004.84
1004.34
1003.82
1003.28
1002.72
1002.13
1001.53
1000.9
1000.25
999.571
998.873
998.152
997.408
996.642
995.854
995.046
994.218
993.373
992.51
991.634
990.745
989.846
988.94
988.029
987.115
986.203
985.295
984.394
983.503
982.625
981.763
980.919
980.096
979.296
978.521
977.773
977.053
976.363
975.703
975.073
974.475
973.908
973.371
972.865
972.389
971.943
971.525
971.135
970.771
970.433
970.12
969.83
969.563
969.317
969.091
968.886
968.699
968.53
968.378
968.244
968.125
968.022
967.934
967.861
967.802
967.757
967.725
967.707
967.703
967.711
967.731
967.765
967.81
967.868
967.938
968.019
968.112
968.216
968.331
968.456
968.592
968.738
968.894
969.059
969.233
969.417
969.608
969.808
970.017
970.233
970.457
970.688
970.927
971.174
971.427
971.687
971.956
972.231
972.513
972.802
973.099
973.402
973.714
974.032
974.357
974.69
975.03
975.376
975.729
976.089
976.454
976.825
977.202
977.583
977.969
978.358
978.75
979.145
979.541
979.937
980.333
980.728
981.122
981.512
981.899
982.281
982.658
983.029
983.392
983.747
984.093
984.429
984.756
985.071
985.375
985.666
985.945
986.211
986.463
986.701
986.925
987.135
987.331
987.512
987.679
987.83
987.968
988.091
988.2
988.294
988.375
988.441
988.494
988.532
988.556
988.566
988.56
988.539
988.502
988.448
988.376
988.285
988.175
988.044
987.891
987.715
987.515
987.292
987.043
986.77
986.473
986.153
985.81
985.447
985.064
984.665
984.253
983.831
983.402
982.969
982.537
982.11
981.691
981.285
980.894
980.522
980.173
979.85
979.555
979.289
979.056
978.856
978.691
978.56
978.466
978.406
978.382
978.391
978.432
978.505
978.607
978.736
978.889
979.064
979.258
979.469
979.692
979.926
980.167
980.412
980.658
980.902
981.141
981.374
981.597
981.808
982.006
982.189
982.354
982.502
982.632
982.742
982.832
982.902
982.953
982.984
982.997
982.992
982.97
982.933
982.88
982.814
982.735
982.644
982.542
982.43
982.31
982.179
982.04
981.895
981.74
981.572
981.403
981.227
981.025
980.818
980.626
980.396
980.125
979.911
979.69
979.366
979.097
978.917
978.657
978.407
978.291
978.211
978.22
978.387
1016.44
1016.36
1016.26
1016.2
1016
1015.78
1015.62
1015.35
1015.1
1014.89
1014.62
1014.34
1014.1
1013.85
1013.58
1013.32
1013.08
1012.82
1012.55
1012.29
1012.03
1011.77
1011.49
1011.22
1010.94
1010.65
1010.36
1010.06
1009.75
1009.42
1009.09
1008.75
1008.4
1008.03
1007.65
1007.25
1006.84
1006.41
1005.96
1005.5
1005.01
1004.51
1003.99
1003.44
1002.87
1002.28
1001.66
1001.02
1000.36
999.671
998.959
998.221
997.46
996.675
995.867
995.038
994.187
993.318
992.432
991.53
990.615
989.69
988.757
987.819
986.88
985.942
985.01
984.085
983.172
982.274
981.393
980.532
979.695
978.884
978.099
977.344
976.619
975.925
975.265
974.637
974.041
973.479
972.949
972.451
971.984
971.547
971.139
970.76
970.407
970.08
969.778
969.499
969.242
969.006
968.79
968.594
968.415
968.254
968.109
967.981
967.867
967.769
967.685
967.616
967.56
967.517
967.488
967.473
967.47
967.48
967.503
967.539
967.587
967.648
967.72
967.805
967.902
968.011
968.131
968.262
968.405
968.558
968.722
968.896
969.08
969.273
969.475
969.686
969.906
970.134
970.37
970.614
970.866
971.125
971.391
971.664
971.944
972.232
972.526
972.827
973.135
973.449
973.771
974.099
974.433
974.775
975.122
975.476
975.836
976.201
976.572
976.948
977.328
977.712
978.101
978.491
978.885
979.28
979.676
980.072
980.467
980.862
981.253
981.641
982.026
982.405
982.779
983.146
983.506
983.857
984.2
984.533
984.856
985.167
985.467
985.755
986.03
986.293
986.541
986.777
986.998
987.205
987.398
987.577
987.742
987.892
988.027
988.149
988.256
988.35
988.429
988.495
988.546
988.583
988.606
988.614
988.608
988.585
988.547
988.491
988.417
988.325
988.213
988.079
987.924
987.745
987.542
987.314
987.061
986.782
986.479
986.152
985.801
985.429
985.037
984.629
984.206
983.773
983.332
982.888
982.446
982.008
981.579
981.162
980.761
980.381
980.024
979.693
979.391
979.12
978.882
978.679
978.511
978.379
978.284
978.225
978.202
978.214
978.259
978.336
978.444
978.579
978.74
978.922
979.125
979.345
979.578
979.822
980.073
980.328
980.585
980.839
981.089
981.332
981.565
981.786
981.993
982.184
982.358
982.514
982.65
982.766
982.862
982.938
982.994
983.03
983.048
983.047
983.03
982.997
982.949
982.887
982.814
982.728
982.633
982.528
982.414
982.293
982.162
982.025
981.883
981.731
981.566
981.403
981.233
981.034
980.836
980.657
980.432
980.176
979.982
979.775
979.49
979.262
979.111
978.912
978.742
978.69
978.715
978.833
1016.2
1016.17
1016.1
1015.98
1015.83
1015.71
1015.5
1015.27
1015.1
1014.86
1014.61
1014.39
1014.16
1013.9
1013.66
1013.43
1013.18
1012.93
1012.68
1012.43
1012.17
1011.91
1011.65
1011.38
1011.11
1010.82
1010.53
1010.24
1009.93
1009.61
1009.28
1008.94
1008.59
1008.22
1007.84
1007.45
1007.03
1006.61
1006.16
1005.69
1005.2
1004.69
1004.17
1003.61
1003.04
1002.44
1001.81
1001.16
1000.48
999.782
999.054
998.3
997.52
996.715
995.885
995.032
994.158
993.263
992.349
991.419
990.475
989.521
988.559
987.592
986.623
985.657
984.697
983.746
982.808
981.887
980.986
980.107
979.254
978.43
977.635
976.871
976.141
975.445
974.784
974.158
973.567
973.011
972.489
971.999
971.542
971.116
970.72
970.353
970.013
969.698
969.408
969.141
968.896
968.671
968.466
968.279
968.109
967.956
967.819
967.697
967.589
967.495
967.416
967.349
967.296
967.256
967.229
967.215
967.214
967.226
967.251
967.288
967.338
967.402
967.477
967.565
967.666
967.779
967.904
968.042
968.191
968.352
968.525
968.708
968.902
969.106
969.32
969.544
969.776
970.018
970.268
970.526
970.793
971.066
971.348
971.636
971.931
972.233
972.542
972.857
973.178
973.506
973.84
974.18
974.526
974.878
975.235
975.597
975.965
976.337
976.714
977.095
977.48
977.868
978.259
978.653
979.047
979.443
979.839
980.234
980.628
981.019
981.408
981.794
982.174
982.55
982.919
983.282
983.637
983.983
984.32
984.648
984.965
985.271
985.566
985.849
986.119