# vtk DataFile Version 2.0
LBE mesh
ASCII
DATASET STRUCTURED_POINTS
DIMENSIONS 300 100 1
ASPECT_RATIO 1 1 1
ORIGIN 0 0 0
POINT_DATA 30000
SCALARS rho double 1
LOOKUP_TABLE default
1047.74
1016.17
1015.47
1021.93
1020.11
1016.23
1016.05
1016.57
1015.8
1015.02
1014.86
1014.71
1014.35
1014.05
1013.86
1013.65
1013.41
1013.2
1013
1012.8
1012.59
1012.38
1012.17
1011.96
1011.75
1011.53
1011.3
1011.07
1010.83
1010.58
1010.33
1010.07
1009.79
1009.51
1009.22
1008.91
1008.6
1008.27
1007.92
1007.57
1007.2
1006.81
1006.41
1006
1005.57
1005.12
1004.65
1004.17
1003.67
1003.15
1002.62
1002.06
1001.49
1000.9
1000.3
999.677
999.04
998.387
997.721
997.041
996.35
995.648
994.936
994.217
993.492
992.763
992.031
991.298
990.567
989.838
989.115
988.397
987.689
986.991
986.305
985.632
984.975
984.333
983.71
983.104
982.519
981.953
981.409
980.886
980.386
979.907
979.451
979.018
978.607
978.219
977.852
977.508
977.185
976.883
976.602
976.341
976.099
975.877
975.673
975.487
975.319
975.167
975.032
974.911
974.806
974.715
974.637
974.573
974.52
974.48
974.451
974.433
974.424
974.425
974.435
974.454
974.48
974.513
974.553
974.6
974.651
974.708
974.77
974.835
974.904
974.976
975.05
975.127
975.205
975.283
975.363
975.442
975.521
975.599
975.676
975.751
975.824
975.895
975.962
976.027
976.088
976.145
976.198
976.247
976.291
976.33
976.365
976.394
976.417
976.436
976.448
976.455
976.455
976.45
976.439
976.421
976.398
976.368
976.331
976.288
976.238
976.181
976.117
976.045
975.966
975.879
975.784
975.68
975.569
975.448
975.32
975.183
975.039
974.887
974.728
974.564
974.395
974.223
974.048
973.873
973.7
973.53
973.365
973.208
973.061
972.926
972.805
972.701
972.616
972.552
972.511
972.494
972.502
972.536
972.598
972.688
972.805
972.95
973.122
973.32
973.543
973.79
974.059
974.348
974.655
974.978
975.315
975.664
976.022
976.387
976.758
977.131
977.505
977.879
978.25
978.617
978.979
979.333
979.68
980.019
980.348
980.667
980.976
981.274
981.561
981.837
982.103
982.358
982.602
982.837
983.062
983.278
983.486
983.685
983.877
984.063
984.242
984.416
984.584
984.748
984.908
985.063
985.215
985.363
985.508
985.65
985.788
985.922
986.054
986.181
986.305
986.424
986.538
986.647
986.75
986.848
986.938
987.021
987.096
987.163
987.221
987.27
987.309
987.338
987.356
987.363
987.358
987.342
987.313
987.273
987.22
987.155
987.076
986.985
986.88
986.763
986.632
986.488
986.329
986.156
985.969
985.763
985.538
985.302
985.039
984.733
984.419
984.102
983.67
983.154
982.783
982.28
981.183
980.397
980.454
978.392
974.426
976.363
977.097
953.213
1030.69
1027.17
1023.11
1017.94
1018.13
1018.31
1017.14
1016
1015.77
1015.53
1015.06
1014.68
1014.45
1014.2
1013.93
1013.69
1013.48
1013.26
1013.04
1012.83
1012.62
1012.41
1012.2
1011.98
1011.76
1011.54
1011.31
1011.07
1010.83
1010.58
1010.33
1010.06
1009.78
1009.5
1009.2
1008.89
1008.57
1008.24
1007.9
1007.54
1007.17
1006.78
1006.38
1005.96
1005.53
1005.08
1004.61
1004.13
1003.63
1003.11
1002.57
1002.02
1001.44
1000.86
1000.25
999.629
998.992
998.34
997.675
996.996
996.306
995.605
994.895
994.178
993.455
992.728
991.998
991.268
990.539
989.814
989.093
988.379
987.674
986.979
986.296
985.627
984.972
984.334
983.714
983.111
982.528
981.966
981.424
980.905
980.406
979.93
979.476
979.045
978.636
978.249
977.884
977.541
977.22
976.919
976.639
976.378
976.138
975.916
975.713
975.527
975.359
975.207
975.072
974.952
974.846
974.755
974.677
974.612
974.56
974.519
974.49
974.471
974.462
974.463
974.472
974.491
974.516
974.549
974.589
974.635
974.686
974.743
974.804
974.869
974.938
975.009
975.083
975.159
975.236
975.315
975.394
975.474
975.552
975.63
975.707
975.782
975.855
975.926
975.993
976.058
976.119
976.176
976.229
976.278
976.322
976.361
976.395
976.424
976.447
976.465
976.477
976.484
976.484
976.479
976.467
976.449
976.424
976.394
976.357
976.313
976.263
976.206
976.141
976.069
975.99
975.903
975.808
975.705
975.594
975.475
975.347
975.211
975.068
974.918
974.761
974.598
974.43
974.259
974.086
973.912
973.739
973.57
973.405
973.249
973.102
972.966
972.845
972.74
972.653
972.588
972.544
972.524
972.53
972.561
972.62
972.706
972.82
972.961
973.13
973.324
973.544
973.787
974.052
974.338
974.642
974.963
975.297
975.643
975.999
976.362
976.731
977.103
977.477
977.849
978.219
978.586
978.947
979.302
979.649
979.988
980.317
980.637
980.946
981.245
981.533
981.81
982.077
982.333
982.578
982.814
983.04
983.257
983.466
983.666
983.859
984.046
984.226
984.4
984.569
984.734
984.893
985.049
985.201
985.349
985.495
985.636
985.774
985.909
986.041
986.168
986.292
986.411
986.525
986.634
986.738
986.835
986.926
987.009
987.085
987.152
987.21
987.26
987.299
987.328
987.347
987.354
987.35
987.334
987.306
987.265
987.212
987.147
987.068
986.976
986.871
986.753
986.62
986.474
986.314
986.138
985.946
985.739
985.511
985.26
984.991
984.701
984.362
983.986
983.612
983.155
982.543
981.965
981.443
980.37
978.984
978.394
977.141
972.826
968.906
966.877
1022.62
1027.43
1022.78
1018.51
1018.76
1018.5
1017.13
1016.19
1016.01
1015.67
1015.16
1014.79
1014.56
1014.29
1014.01
1013.76
1013.54
1013.32
1013.09
1012.88
1012.66
1012.45
1012.23
1012.01
1011.79
1011.56
1011.33
1011.09
1010.84
1010.59
1010.33
1010.06
1009.79
1009.5
1009.2
1008.89
1008.57
1008.23
1007.89
1007.53
1007.15
1006.77
1006.36
1005.94
1005.51
1005.05
1004.59
1004.1
1003.6
1003.08
1002.54
1001.98
1001.41
1000.82
1000.21
999.592
998.954
998.301
997.634
996.955
996.264
995.563
994.853
994.135
993.412
992.685
991.957
991.227
990.499
989.774
989.055
988.342
987.638
986.945
986.264
985.597
984.944
984.308
983.69
983.09
982.51
981.95
981.411
980.893
980.397
979.923
979.472
979.043
978.636
978.252
977.889
977.548
977.228
976.929
976.651
976.392
976.153
975.932
975.731
975.547
975.379
975.229
975.094
974.975
974.87
974.779
974.702
974.638
974.586
974.546
974.517
974.498
974.49
974.491
974.501
974.518
974.544
974.578
974.617
974.664
974.715
974.772
974.833
974.898
974.967
975.039
975.113
975.19
975.268
975.346
975.426
975.505
975.585
975.663
975.74
975.816
975.889
975.96
976.028
976.093
976.154
976.212
976.265
976.314
976.358
976.398
976.432
976.461
976.484
976.502
976.514
976.52
976.52
976.514
976.502
976.484
976.459
976.429
976.391
976.347
976.297
976.239
976.175
976.103
976.024
975.937
975.843
975.74
975.63
975.511
975.384
975.249
975.106
974.956
974.8
974.637
974.47
974.299
974.125
973.95
973.777
973.606
973.44
973.281
973.132
972.994
972.87
972.762
972.672
972.602
972.555
972.531
972.533
972.561
972.616
972.699
972.809
972.948
973.113
973.305
973.522
973.764
974.027
974.311
974.615
974.934
975.268
975.614
975.969
976.333
976.702
977.074
977.448
977.821
978.193
978.56
978.922
979.278
979.626
979.966
980.296
980.617
980.927
981.227
981.516
981.794
982.061
982.318
982.565
982.801
983.028
983.245
983.455
983.655
983.849
984.035
984.216
984.39
984.559
984.724
984.884
985.04
985.191
985.34
985.485
985.627
985.765
985.9
986.032
986.16
986.284
986.403
986.518
986.628
986.732
986.83
986.921
987.005
987.082
987.15
987.209
987.26
987.3
987.33
987.349
987.357
987.354
987.339
987.311
987.272
987.219
987.153
987.075
986.983
986.877
986.758
986.625
986.478
986.317
986.14
985.944
985.734
985.508
985.253
984.974
984.689
984.362
983.953
983.559
983.186
982.559
981.788
981.439
980.764
978.744
977.833
978.657
974.232
968.514
972.638
1022.34
1021.09
1020.57
1021.77
1019.28
1017.2
1017.17
1017.11
1016.21
1015.52
1015.31
1015.06
1014.66
1014.34
1014.11
1013.87
1013.62
1013.38
1013.16
1012.94
1012.72
1012.5
1012.28
1012.05
1011.83
1011.6
1011.36
1011.12
1010.87
1010.62
1010.36
1010.09
1009.81
1009.52
1009.21
1008.9
1008.58
1008.24
1007.9
1007.53
1007.16
1006.77
1006.36
1005.94
1005.5
1005.05
1004.58
1004.09
1003.58
1003.06
1002.52
1001.96
1001.39
1000.79
1000.19
999.56
998.919
998.263
997.594
996.912
996.219
995.515
994.802
994.082
993.357
992.628
991.897
991.166
990.436
989.71
988.99
988.277
987.573
986.88
986.199
985.532
984.881
984.246
983.63
983.032
982.454
981.896
981.359
980.845
980.351
979.88
979.432
979.006
978.602
978.221
977.861
977.523
977.206
976.91
976.635
976.378
976.142
975.924
975.724
975.542
975.377
975.229
975.096
974.978
974.875
974.786
974.711
974.648
974.597
974.558
974.53
974.513
974.506
974.507
974.518
974.537
974.564
974.598
974.639
974.685
974.738
974.795
974.857
974.923
974.993
975.065
975.141
975.218
975.296
975.376
975.456
975.537
975.617
975.696
975.773
975.85
975.924
975.996
976.064
976.13
976.192
976.25
976.304
976.354
976.398
976.438
976.473
976.502
976.525
976.544
976.556
976.562
976.562
976.556
976.544
976.526
976.501
976.471
976.433
976.389
976.338
976.281
976.217
976.145
976.066
975.98
975.886
975.783
975.674
975.555
975.428
975.293
975.151
975.001
974.844
974.68
974.511
974.339
974.163
973.986
973.81
973.635
973.466
973.303
973.149
973.006
972.877
972.764
972.669
972.595
972.543
972.514
972.511
972.535
972.587
972.666
972.774
972.909
973.073
973.264
973.48
973.721
973.985
974.27
974.573
974.894
975.229
975.577
975.934
976.3
976.671
977.045
977.421
977.796
978.169
978.538
978.902
979.26
979.61
979.951
980.283
980.605
980.917
981.218
981.508
981.786
982.055
982.312
982.559
982.796
983.023
983.24
983.45
983.651
983.844
984.03
984.211
984.385
984.554
984.718
984.878
985.033
985.185
985.334
985.479
985.621
985.76
985.895
986.027
986.156
986.28
986.401
986.516
986.627
986.732
986.831
986.924
987.009
987.087
987.157
987.218
987.269
987.311
987.342
987.363
987.372
987.37
987.356
987.33
987.291
987.239
987.174
987.096
987.004
986.899
986.78
986.648
986.501
986.338
986.162
985.969
985.756
985.526
985.283
985.008
984.695
984.384
984.043
983.586
983.113
982.737
982.107
981.134
980.63
980.173
978.186
976.472
976.501
975.515
973.619
1022.33
1020.17
1020.12
1020.02
1018.56
1018.16
1017.62
1016.78
1016.19
1015.91
1015.54
1015.11
1014.77
1014.51
1014.24
1013.97
1013.72
1013.49
1013.25
1013.02
1012.8
1012.57
1012.35
1012.12
1011.89
1011.66
1011.42
1011.18
1010.93
1010.67
1010.4
1010.13
1009.85
1009.56
1009.25
1008.94
1008.61
1008.28
1007.92
1007.56
1007.18
1006.79
1006.38
1005.96
1005.52
1005.06
1004.59
1004.09
1003.58
1003.06
1002.51
1001.95
1001.37
1000.78
1000.16
999.531
998.885
998.225
997.55
996.863
996.164
995.455
994.737
994.012
993.282
992.549
991.813
991.077
990.344
989.615
988.892
988.176
987.47
986.776
986.094
985.427
984.775
984.141
983.526
982.93
982.354
981.798
981.264
980.752
980.263
979.795
979.351
978.929
978.529
978.151
977.796
977.462
977.149
976.857
976.585
976.334
976.1
975.886
975.69
975.512
975.35
975.205
975.075
974.96
974.86
974.774
974.701
974.64
974.592
974.555
974.529
974.514
974.508
974.513
974.525
974.546
974.574
974.609
974.651
974.7
974.753
974.812
974.875
974.942
975.013
975.087
975.163
975.242
975.322
975.402
975.484
975.565
975.646
975.726
975.805
975.882
975.958
976.03
976.1
976.167
976.23
976.289
976.344
976.394
976.439
976.48
976.515
976.545
976.569
976.588
976.601
976.607
976.608
976.603
976.591
976.573
976.548
976.517
976.48
976.436
976.386
976.328
976.265
976.193
976.115
976.028
975.934
975.833
975.722
975.604
975.477
975.342
975.198
975.047
974.888
974.723
974.552
974.376
974.196
974.015
973.835
973.655
973.48
973.311
973.151
973.003
972.867
972.747
972.646
972.566
972.508
972.474
972.466
972.486
972.534
972.61
972.716
972.85
973.013
973.204
973.421
973.663
973.928
974.214
974.52
974.844
975.182
975.533
975.893
976.262
976.636
977.014
977.393
977.772
978.148
978.52
978.886
979.247
979.599
979.942
980.276
980.6
980.913
981.215
981.506
981.785
982.054
982.312
982.559
982.796
983.023
983.241
983.45
983.65
983.843
984.029
984.209
984.383
984.552
984.715
984.875
985.03
985.182
985.331
985.476
985.618
985.758
985.894
986.027
986.156
986.282
986.403
986.52
986.633
986.739
986.84
986.934
987.021
987.101
987.173
987.235
987.289
987.332
987.366
987.388
987.399
987.398
987.386
987.361
987.324
987.273
987.21
987.133
987.043
986.939
986.821
986.689
986.544
986.383
986.207
986.018
985.811
985.58
985.337
985.081
984.778
984.443
984.131
983.756
983.223
982.775
982.433
981.581
980.574
980.466
979.631
977.324
976.983
976.999
975.121
1020.25
1020.28
1019.88
1018.43
1018.58
1018.44
1017.29
1016.68
1016.53
1016.12
1015.56
1015.21
1014.98
1014.67
1014.35
1014.09
1013.86
1013.61
1013.36
1013.13
1012.91
1012.68
1012.45
1012.22
1011.98
1011.75
1011.5
1011.26
1011
1010.74
1010.48
1010.2
1009.92
1009.62
1009.32
1009
1008.67
1008.33
1007.98
1007.61
1007.23
1006.83
1006.42
1005.99
1005.55
1005.09
1004.61
1004.12
1003.6
1003.07
1002.52
1001.95
1001.37
1000.76
1000.14
999.505
998.852
998.183
997.501
996.806
996.099
995.382
994.656
993.923
993.185
992.444
991.701
990.959
990.22
989.485
988.757
988.036
987.326
986.629
985.945
985.276
984.624
983.989
983.374
982.779
982.205
981.652
981.121
980.613
980.127
979.665
979.225
978.807
978.412
978.04
977.69
977.361
977.054
976.767
976.501
976.254
976.026
975.817
975.626
975.453
975.295
975.155
975.029
974.919
974.823
974.74
974.671
974.614
974.569
974.536
974.513
974.501
974.498
974.505
974.52
974.543
974.573
974.611
974.655
974.705
974.761
974.821
974.886
974.955
975.027
975.103
975.18
975.26
975.341
975.423
975.506
975.588
975.671
975.752
975.832
975.911
975.987
976.061
976.132
976.2
976.264
976.324
976.38
976.431
976.477
976.519
976.556
976.587
976.612
976.631
976.645
976.652
976.654
976.649
976.638
976.62
976.597
976.566
976.529
976.486
976.436
976.379
976.315
976.244
976.166
976.079
975.986
975.884
975.773
975.654
975.526
975.39
975.245
975.092
974.93
974.762
974.587
974.407
974.223
974.036
973.849
973.663
973.481
973.305
973.138
972.981
972.838
972.711
972.603
972.516
972.452
972.413
972.401
972.417
972.461
972.536
972.64
972.774
972.937
973.128
973.347
973.591
973.859
974.149
974.459
974.786
975.128
975.483
975.849
976.222
976.6
976.982
977.366
977.748
978.128
978.503
978.873
979.236
979.591
979.937
980.273
980.598
980.913
981.216
981.508
981.788
982.057
982.316
982.563
982.8
983.027
983.244
983.452
983.652
983.845
984.03
984.209
984.383
984.551
984.714
984.874
985.029
985.181
985.33
985.476
985.619
985.759
985.896
986.03
986.161
986.288
986.411
986.529
986.643
986.752
986.855
986.951
987.041
987.123
987.197
987.261
987.317
987.363
987.399
987.424
987.437
987.439
987.428
987.406
987.37
987.322
987.26
987.186
987.098
986.996
986.881
986.752
986.609
986.453
986.281
986.093
985.894
985.677
985.432
985.175
984.915
984.597
984.23
983.919
983.554
982.958
982.464
982.198
981.361
980.241
980.005
979.524
978.115
977.191
977.075
1019.2
1019.6
1019.14
1018.52
1018.35
1017.62
1017.27
1017.04
1016.5
1015.99
1015.72
1015.45
1015.08
1014.75
1014.51
1014.26
1013.99
1013.73
1013.5
1013.27
1013.03
1012.8
1012.57
1012.33
1012.1
1011.86
1011.61
1011.36
1011.11
1010.85
1010.58
1010.3
1010.01
1009.71
1009.41
1009.09
1008.76
1008.41
1008.06
1007.69
1007.3
1006.9
1006.49
1006.05
1005.61
1005.14
1004.66
1004.15
1003.63
1003.1
1002.54
1001.96
1001.37
1000.76
1000.13
999.48
998.817
998.139
997.446
996.74
996.022
995.294
994.557
993.814
993.066
992.314
991.562
990.81
990.062
989.319
988.583
987.856
987.141
986.439
985.751
985.079
984.425
983.79
983.175
982.58
982.008
981.457
980.93
980.425
979.944
979.487
979.052
978.641
978.252
977.886
977.542
977.22
976.919
976.639
976.38
976.14
975.919
975.716
975.531
975.364
975.213
975.077
974.958
974.853
974.762
974.685
974.62
974.568
974.528
974.499
974.48
974.472
974.473
974.483
974.502
974.528
974.561
974.602
974.649
974.702
974.759
974.822
974.889
974.96
975.034
975.111
975.19
975.271
975.353
975.437
975.521
975.604
975.688
975.77
975.852
975.931
976.008
976.083
976.155
976.224
976.29
976.351
976.408
976.46
976.508
976.551
976.589
976.621
976.648
976.668
976.683
976.692
976.695
976.691
976.681
976.664
976.642
976.612
976.576
976.533
976.484
976.428
976.364
976.293
976.215
976.129
976.035
975.932
975.821
975.701
975.572
975.434
975.287
975.131
974.966
974.794
974.614
974.429
974.239
974.046
973.851
973.658
973.469
973.284
973.109
972.944
972.793
972.659
972.543
972.449
972.379
972.335
972.319
972.331
972.374
972.446
972.55
972.684
972.849
973.043
973.264
973.512
973.784
974.078
974.392
974.724
975.072
975.432
975.802
976.18
976.564
976.951
977.339
977.726
978.11
978.489
978.862
979.228
979.586
979.934
980.272
980.599
980.915
981.219
981.512
981.793
982.063
982.321
982.568
982.805
983.031
983.248
983.456
983.655
983.847
984.032
984.21
984.383
984.551
984.714
984.873
985.029
985.181
985.331
985.477
985.621
985.762
985.9
986.036
986.169
986.297
986.422
986.543
986.659
986.771
986.876
986.975
987.067
987.152
987.228
987.296
987.355
987.404
987.442
987.47
987.486
987.491
987.483
987.464
987.431
987.385
987.326
987.255
987.17
987.072
986.961
986.836
986.698
986.546
986.383
986.202
986.006
985.802
985.578
985.322
985.064
984.804
984.465
984.093
983.809
983.415
982.781
982.387
982.1
981.167
980.378
980.163
979.339
978.479
978.216
1018.92
1018.64
1018.42
1018.56
1017.95
1017.38
1017.31
1016.89
1016.4
1016.12
1015.86
1015.48
1015.16
1014.92
1014.66
1014.37
1014.12
1013.88
1013.65
1013.4
1013.17
1012.94
1012.71
1012.47
1012.23
1011.99
1011.75
1011.49
1011.24
1010.97
1010.7
1010.42
1010.13
1009.83
1009.52
1009.2
1008.87
1008.52
1008.16
1007.79
1007.4
1006.99
1006.57
1006.14
1005.68
1005.21
1004.72
1004.21
1003.68
1003.14
1002.57
1001.98
1001.38
1000.76
1000.12
999.458
998.783
998.092
997.385
996.666
995.935
995.193
994.443
993.685
992.924
992.159
991.394
990.63
989.871
989.118
988.372
987.637
986.914
986.205
985.512
984.837
984.18
983.543
982.927
982.334
981.763
981.215
980.691
980.191
979.715
979.263
978.835
978.43
978.048
977.69
977.354
977.039
976.747
976.475
976.223
975.991
975.778
975.583
975.406
975.246
975.102
974.974
974.861
974.763
974.678
974.608
974.549
974.503
974.468
974.445
974.432
974.428
974.434
974.449
974.471
974.501
974.538
974.583
974.633
974.688
974.749
974.814
974.883
974.957
975.033
975.111
975.191
975.274
975.357
975.442
975.527
975.612
975.696
975.779
975.861
975.941
976.019
976.095
976.168
976.237
976.303
976.366
976.424
976.477
976.527
976.571
976.61
976.643
976.671
976.694
976.71
976.721
976.725
976.723
976.714
976.699
976.678
976.65
976.615
976.573
976.525
976.469
976.406
976.336
976.258
976.172
976.077
975.974
975.862
975.741
975.61
975.47
975.32
975.161
974.992
974.815
974.63
974.439
974.243
974.043
973.841
973.64
973.442
973.25
973.066
972.893
972.734
972.592
972.47
972.37
972.294
972.246
972.226
972.235
972.276
972.348
972.453
972.588
972.754
972.951
973.176
973.428
973.705
974.004
974.324
974.661
975.014
975.38
975.756
976.14
976.529
976.921
977.313
977.705
978.093
978.476
978.852
979.221
979.582
979.932
980.272
980.601
980.918
981.223
981.516
981.798
982.068
982.326
982.573
982.809
983.035
983.251
983.458
983.656
983.847
984.032
984.21
984.382
984.55
984.713
984.872
985.028
985.181
985.332
985.479
985.625
985.767
985.907
986.045
986.18
986.311
986.438
986.561
986.68
986.794
986.903
987.005
987.1
987.188
987.268
987.339
987.401
987.453
987.495
987.526
987.546
987.554
987.55
987.534
987.505
987.463
987.409
987.341
987.261
987.168
987.061
986.943
986.812
986.666
986.51
986.342
986.156
985.956
985.754
985.53
985.266
985.012
984.768
984.42
984.035
983.788
983.414
982.764
982.382
982.129
981.382
980.633
980.32
979.883
979.049
1018.46
1018.27
1018.17
1017.99
1017.62
1017.49
1017.1
1016.67
1016.48
1016.2
1015.82
1015.53
1015.3
1015.03
1014.74
1014.5
1014.27
1014.02
1013.78
1013.55
1013.32
1013.09
1012.85
1012.62
1012.38
1012.14
1011.89
1011.64
1011.38
1011.12
1010.85
1010.56
1010.27
1009.97
1009.66
1009.34
1009
1008.65
1008.29
1007.91
1007.52
1007.11
1006.68
1006.24
1005.78
1005.3
1004.8
1004.28
1003.75
1003.19
1002.61
1002.02
1001.4
1000.77
1000.11
999.438
998.748
998.041
997.32
996.584
995.837
995.078
994.311
993.537
992.759
991.979
991.199
990.421
989.648
988.882
988.125
987.379
986.647
985.931
985.232
984.551
983.891
983.252
982.635
982.042
981.473
980.928
980.408
979.913
979.442
978.996
978.575
978.178
977.804
977.454
977.126
976.821
976.538
976.275
976.032
975.809
975.605
975.419
975.251
975.099
974.964
974.844
974.74
974.649
974.573
974.509
974.458
974.419
974.391
974.374
974.367
974.369
974.38
974.4
974.428
974.463
974.505
974.553
974.607
974.666
974.73
974.798
974.87
974.945
975.023
975.103
975.185
975.269
975.353
975.438
975.524
975.609
975.693
975.777
975.859
975.939
976.017
976.093
976.166
976.236
976.302
976.365
976.424
976.478
976.528
976.573
976.613
976.648
976.678
976.702
976.72
976.732
976.738
976.738
976.732
976.719
976.699
976.673
976.64
976.6
976.553
976.498
976.436
976.366
976.289
976.203
976.109
976.005
975.892
975.769
975.636
975.494
975.341
975.178
975.005
974.823
974.633
974.437
974.234
974.027
973.818
973.609
973.404
973.204
973.011
972.831
972.665
972.516
972.388
972.282
972.202
972.15
972.127
972.135
972.175
972.248
972.353
972.49
972.66
972.86
973.089
973.345
973.627
973.932
974.257
974.601
974.96
975.331
975.713
976.102
976.497
976.894
977.291
977.686
978.078
978.465
978.845
979.216
979.579
979.931
980.272
980.602
980.92
981.226
981.52
981.801
982.071
982.329
982.575
982.81
983.035
983.25
983.457
983.655
983.845
984.029
984.206
984.379
984.547
984.71
984.87
985.027
985.181
985.333
985.482
985.629
985.773
985.916
986.056
986.193
986.327
986.457
986.584
986.706
986.823
986.935
987.04
987.139
987.23
987.314
987.389
987.455
987.511
987.557
987.592
987.616
987.628
987.629
987.616
987.592
987.555
987.506
987.444
987.369
987.283
987.183
987.071
986.949
986.814
986.665
986.508
986.342
986.156
985.958
985.764
985.544
985.282
985.046
984.816
984.465
984.113
983.895
983.502
982.948
982.628
982.266
981.644
981.176
980.73
980.071
1017.93
1017.98
1017.9
1017.57
1017.47
1017.31
1016.91
1016.69
1016.46
1016.13
1015.86
1015.63
1015.36
1015.09
1014.86
1014.63
1014.38
1014.14
1013.92
1013.69
1013.46
1013.23
1013
1012.77
1012.54
1012.29
1012.05
1011.8
1011.54
1011.28
1011
1010.72
1010.43
1010.13
1009.81
1009.49
1009.15
1008.8
1008.43
1008.05
1007.65
1007.24
1006.81
1006.36
1005.89
1005.41
1004.9
1004.37
1003.83
1003.26
1002.67
1002.06
1001.43
1000.78
1000.11
999.421
998.714
997.99
997.25
996.496
995.729
994.951
994.165
993.372
992.575
991.776
990.978
990.183
989.394
988.613
987.843
987.085
986.342
985.616
984.91
984.223
983.558
982.917
982.299
981.706
981.139
980.597
980.081
979.592
979.127
978.689
978.275
977.886
977.522
977.181
976.864
976.569
976.295
976.042
975.81
975.597
975.403
975.227
975.069
974.927
974.802
974.691
974.596
974.514
974.446
974.391
974.349
974.317
974.297
974.287
974.287
974.296
974.314
974.341
974.374
974.415
974.461
974.514
974.573
974.636
974.703
974.774
974.849
974.926
975.006
975.088
975.171
975.256
975.341
975.426
975.511
975.597
975.681
975.764
975.845
975.925
976.002
976.077
976.149
976.218
976.284
976.346
976.405
976.459
976.509
976.554
976.595
976.631
976.662
976.687
976.706
976.72
976.729
976.731
976.727
976.716
976.699
976.675
976.644
976.606
976.561
976.508
976.448
976.379
976.302
976.217
976.123
976.018
975.905
975.781
975.647
975.502
975.346
975.18
975.003
974.817
974.622
974.42
974.211
973.998
973.783
973.567
973.354
973.147
972.949
972.762
972.589
972.435
972.301
972.191
972.108
972.053
972.028
972.036
972.076
972.149
972.256
972.396
972.569
972.773
973.007
973.268
973.556
973.866
974.197
974.546
974.911
975.288
975.676
976.07
976.469
976.871
977.272
977.671
978.067
978.456
978.839
979.212
979.577
979.931
980.273
980.603
980.922
981.228
981.521
981.802
982.071
982.328
982.573
982.808
983.032
983.246
983.451
983.648
983.838
984.021
984.199
984.371
984.539
984.703
984.864
985.022
985.178
985.332
985.483
985.632
985.78
985.925
986.067
986.208
986.345
986.479
986.609
986.734
986.856
986.971
987.081
987.183
987.279
987.366
987.445
987.516
987.576
987.627
987.667
987.695
987.713
987.718
987.711
987.693
987.662
987.619
987.563
987.495
987.416
987.326
987.223
987.109
986.987
986.853
986.706
986.554
986.395
986.214
986.024
985.848
985.64
985.385
985.175
984.973
984.633
984.312
984.12
983.768
983.282
982.974
982.653
982.134
981.637
981.117
1017.63
1017.64
1017.55
1017.43
1017.3
1017.01
1016.84
1016.67
1016.35
1016.11
1015.92
1015.66
1015.4
1015.18
1014.96
1014.72
1014.49
1014.27
1014.05
1013.83
1013.6
1013.38
1013.16
1012.92
1012.69
1012.45
1012.21
1011.96
1011.71
1011.44
1011.17
1010.89
1010.6
1010.3
1009.98
1009.66
1009.32
1008.96
1008.59
1008.21
1007.81
1007.39
1006.95
1006.5
1006.02
1005.53
1005.01
1004.48
1003.92
1003.34
1002.74
1002.11
1001.47
1000.8
1000.11
999.407
998.681
997.937
997.176
996.401
995.612
994.813
994.004
993.189
992.371
991.551
990.732
989.918
989.11
988.312
987.526
986.754
985.999
985.263
984.547
983.854
983.185
982.54
981.922
981.329
980.764
980.225
979.714
979.231
978.773
978.343
977.938
977.559
977.205
976.875
976.568
976.284
976.022
975.78
975.559
975.358
975.175
975.01
974.862
974.731
974.616
974.516
974.431
974.359
974.301
974.255
974.222
974.2
974.188
974.186
974.194
974.211
974.237
974.269
974.31
974.356
974.409
974.467
974.531
974.598
974.669
974.744
974.822
974.902
974.983
975.067
975.151
975.236
975.322
975.407
975.492
975.576
975.659
975.741
975.821
975.898
975.974
976.047
976.117
976.184
976.248
976.309
976.366
976.419
976.468
976.513
976.553
976.589
976.619
976.645
976.666
976.682
976.691
976.695
976.693
976.685
976.671
976.649
976.621
976.586
976.544
976.493
976.435
976.368
976.293
976.209
976.115
976.011
975.897
975.773
975.637
975.49
975.332
975.164
974.984
974.794
974.595
974.389
974.175
973.957
973.736
973.515
973.297
973.084
972.88
972.688
972.511
972.353
972.216
972.103
972.018
971.961
971.936
971.943
971.984
972.06
972.169
972.313
972.489
972.698
972.936
973.202
973.495
973.81
974.147
974.502
974.872
975.255
975.647
976.046
976.449
976.854
977.259
977.662
978.06
978.452
978.836
979.211
979.576
979.931
980.274
980.604
980.922
981.227
981.52
981.8
982.068
982.323
982.567
982.8
983.023
983.236
983.44
983.636
983.825
984.008
984.185
984.358
984.526
984.692
984.854
985.014
985.172
985.327
985.482
985.634
985.784
985.933
986.079
986.223
986.365
986.503
986.637
986.767
986.892
987.011
987.125
987.232
987.332
987.425
987.508
987.584
987.649
987.704
987.749
987.784
987.807
987.818
987.818
987.806
987.782
987.746
987.698
987.639
987.569
987.488
987.397
987.295
987.184
987.066
986.939
986.799
986.658
986.513
986.344
986.172
986.019
985.829
985.598
985.423
985.237
984.938
984.676
984.479
984.158
983.796
983.483
983.115
982.716
982.145
1017.41
1017.36
1017.29
1017.26
1017.08
1016.89
1016.77
1016.54
1016.32
1016.14
1015.9
1015.67
1015.47
1015.25
1015.02
1014.81
1014.6
1014.39
1014.17
1013.96
1013.74
1013.52
1013.3
1013.08
1012.85
1012.62
1012.38
1012.13
1011.88
1011.62
1011.35
1011.07
1010.77
1010.47
1010.16
1009.83
1009.49
1009.14
1008.77
1008.38
1007.97
1007.55
1007.11
1006.65
1006.17
1005.66
1005.14
1004.59
1004.02
1003.43
1002.81
1002.18
1001.51
1000.83
1000.12
999.396
998.648
997.882
997.099
996.299
995.487
994.662
993.829
992.99
992.147
991.303
990.461
989.625
988.796
987.979
987.175
986.387
985.618
984.871
984.145
983.445
982.77
982.122
981.502
980.91
980.347
979.814
979.308
978.831
978.382
977.961
977.566
977.197
976.854
976.536
976.241
975.97
975.719
975.491
975.282
975.092
974.922
974.769
974.633
974.514
974.411
974.322
974.247
974.187
974.139
974.103
974.08
974.067
974.065
974.073
974.089
974.115
974.148
974.189
974.237
974.29
974.349
974.413
974.482
974.554
974.63
974.709
974.79
974.872
974.956
975.041
975.127
975.212
975.297
975.383
975.466
975.549
975.63
975.709
975.787
975.862
975.934
976.004
976.071
976.135
976.196
976.253
976.307
976.358
976.405
976.447
976.486
976.521
976.55
976.576
976.597
976.612
976.623
976.629
976.629
976.623
976.61
976.592
976.567
976.534
976.495
976.448
976.392
976.328
976.255
976.173
976.081
975.979
975.865
975.741
975.605
975.458
975.299
975.128
974.947
974.755
974.553
974.344
974.127
973.905
973.681
973.456
973.234
973.018
972.811
972.616
972.436
972.276
972.137
972.023
971.937
971.88
971.855
971.864
971.907
971.985
972.098
972.244
972.425
972.638
972.881
973.152
973.449
973.77
974.112
974.471
974.846
975.233
975.63
976.032
976.439
976.847
977.255
977.659
978.059
978.453
978.838
979.214
979.579
979.933
980.275
980.605
980.922
981.225
981.516
981.795
982.061
982.314
982.556
982.787
983.008
983.219
983.422
983.617
983.805
983.987
984.165
984.338
984.507
984.674
984.838
985
985.161
985.319
985.477
985.633
985.787
985.94
986.09
986.239
986.385
986.527
986.666
986.8
986.93
987.054
987.173
987.285
987.39
987.487
987.576
987.657
987.728
987.789
987.84
987.88
987.909
987.928
987.934
987.93
987.914
987.887
987.848
987.799
987.74
987.67
987.592
987.505
987.409
987.305
987.198
987.083
986.956
986.834
986.71
986.56
986.414
986.292
986.128
985.932
985.794
985.639
985.388
985.175
984.999
984.729
984.408
984.116
983.795
983.239
1017.18
1017.17
1017.13
1017.04
1016.92
1016.82
1016.64
1016.45
1016.31
1016.11
1015.89
1015.71
1015.51
1015.3
1015.1
1014.9
1014.7
1014.49
1014.29
1014.08
1013.87
1013.66
1013.45
1013.23
1013
1012.77
1012.54
1012.3
1012.05
1011.79
1011.52
1011.25
1010.96
1010.66
1010.34
1010.02
1009.68
1009.32
1008.95
1008.56
1008.15
1007.72
1007.28
1006.81
1006.32
1005.81
1005.28
1004.72
1004.14
1003.53
1002.9
1002.25
1001.57
1000.86
1000.14
999.387
998.617
997.826
997.017
996.192
995.352
994.5
993.64
992.773
991.902
991.031
990.164
989.303
988.451
987.612
986.789
985.984
985.199
984.439
983.703
982.994
982.314
981.663
981.042
980.452
979.891
979.362
978.863
978.394
977.955
977.543
977.16
976.803
976.473
976.167
975.886
975.627
975.391
975.175
974.98
974.804
974.647
974.507
974.384
974.277
974.186
974.109
974.047
973.998
973.961
973.937
973.924
973.922
973.93
973.948
973.974
974.009
974.051
974.1
974.156
974.217
974.283
974.354
974.428
974.507
974.587
974.67
974.755
974.84
974.926
975.013
975.099
975.185
975.27
975.354
975.436
975.517
975.596
975.672
975.745
975.817
975.885
975.951
976.013
976.073
976.129
976.182
976.231
976.278
976.32
976.359
976.395
976.426
976.454
976.477
976.497
976.512
976.523
976.528
976.529
976.525
976.515
976.499
976.476
976.447
976.411
976.367
976.315
976.255
976.185
976.106
976.017
975.916
975.805
975.683
975.548
975.402
975.243
975.073
974.891
974.699
974.496
974.286
974.068
973.845