# vtk DataFile Version 2.0
LBE mesh
ASCII
DATASET STRUCTURED_POINTS
DIMENSIONS 300 100 1
ASPECT_RATIO 1 1 1
ORIGIN 0 0 0
POINT_DATA 30000
SCALARS rho double 1
LOOKUP_TABLE default
1047.88
1016.32
1015.62
1022.07
1020.25
1016.36
1016.18
1016.69
1015.92
1015.13
1014.97
1014.81
1014.44
1014.13
1013.94
1013.72
1013.48
1013.26
1013.06
1012.85
1012.63
1012.42
1012.2
1011.99
1011.76
1011.54
1011.3
1011.07
1010.82
1010.56
1010.3
1010.03
1009.75
1009.46
1009.15
1008.84
1008.51
1008.17
1007.82
1007.46
1007.08
1006.68
1006.27
1005.85
1005.4
1004.94
1004.47
1003.97
1003.46
1002.93
1002.39
1001.82
1001.24
1000.64
1000.02
999.389
998.74
998.075
997.396
996.704
996
995.285
994.56
993.828
993.09
992.347
991.601
990.855
990.11
989.368
988.63
987.9
987.178
986.466
985.767
985.081
984.41
983.756
983.119
982.502
981.904
981.327
980.772
980.238
979.727
979.239
978.774
978.332
977.913
977.517
977.143
976.793
976.464
976.157
975.872
975.607
975.363
975.138
974.933
974.746
974.577
974.426
974.292
974.174
974.072
973.984
973.911
973.852
973.807
973.773
973.752
973.743
973.744
973.755
973.777
973.807
973.847
973.894
973.949
974.011
974.08
974.154
974.234
974.319
974.408
974.501
974.598
974.697
974.798
974.902
975.006
975.112
975.217
975.323
975.428
975.531
975.634
975.735
975.833
975.928
976.021
976.11
976.195
976.276
976.353
976.425
976.492
976.554
976.611
976.662
976.708
976.747
976.782
976.81
976.832
976.847
976.857
976.86
976.856
976.846
976.83
976.806
976.775
976.737
976.691
976.638
976.576
976.506
976.428
976.341
976.245
976.141
976.027
975.905
975.774
975.635
975.488
975.336
975.177
975.015
974.849
974.682
974.517
974.353
974.195
974.043
973.901
973.77
973.654
973.553
973.472
973.41
973.372
973.357
973.369
973.407
973.472
973.566
973.688
973.838
974.017
974.222
974.453
974.708
974.986
975.286
975.604
975.939
976.289
976.652
977.025
977.405
977.792
978.182
978.573
978.964
979.353
979.738
980.118
980.492
980.858
981.215
981.563
981.901
982.228
982.545
982.85
983.145
983.428
983.701
983.963
984.215
984.458
984.691
984.915
985.132
985.341
985.544
985.74
985.93
986.116
986.296
986.473
986.646
986.816
986.983
987.146
987.307
987.465
987.62
987.772
987.92
988.065
988.206
988.343
988.475
988.601
988.722
988.836
988.944
989.043
989.135
989.218
989.291
989.355
989.408
989.45
989.481
989.499
989.506
989.499
989.48
989.448
989.402
989.341
989.266
989.177
989.072
988.951
988.815
988.662
988.488
988.293
988.085
987.849
987.567
987.276
986.98
986.566
986.065
985.708
985.22
984.128
983.346
983.417
981.348
977.334
979.28
980.023
955.84
1030.84
1027.32
1023.26
1018.08
1018.27
1018.44
1017.27
1016.12
1015.89
1015.64
1015.17
1014.77
1014.54
1014.29
1014.01
1013.77
1013.55
1013.32
1013.1
1012.88
1012.67
1012.45
1012.23
1012.01
1011.78
1011.55
1011.31
1011.07
1010.82
1010.56
1010.3
1010.02
1009.74
1009.44
1009.14
1008.82
1008.49
1008.15
1007.8
1007.43
1007.05
1006.65
1006.24
1005.81
1005.37
1004.9
1004.43
1003.93
1003.42
1002.89
1002.34
1001.78
1001.19
1000.59
999.975
999.341
998.692
998.028
997.35
996.659
995.956
995.242
994.519
993.789
993.052
992.312
991.569
990.825
990.082
989.343
988.609
987.881
987.163
986.454
985.758
985.075
984.408
983.757
983.123
982.509
981.914
981.34
980.788
980.257
979.748
979.262
978.799
978.359
977.942
977.548
977.176
976.827
976.5
976.193
975.909
975.645
975.402
975.178
974.973
974.787
974.618
974.467
974.333
974.215
974.113
974.025
973.953
973.893
973.847
973.814
973.792
973.782
973.783
973.794
973.815
973.845
973.884
973.93
973.985
974.046
974.114
974.188
974.268
974.352
974.441
974.534
974.63
974.729
974.83
974.933
975.037
975.142
975.248
975.353
975.458
975.562
975.664
975.765
975.862
975.958
976.05
976.139
976.224
976.305
976.382
976.454
976.521
976.583
976.64
976.691
976.736
976.776
976.81
976.837
976.859
976.874
976.883
976.886
976.882
976.871
976.854
976.83
976.798
976.76
976.714
976.66
976.599
976.529
976.452
976.365
976.27
976.166
976.053
975.932
975.802
975.665
975.52
975.369
975.212
975.051
974.886
974.721
974.556
974.394
974.236
974.084
973.942
973.811
973.694
973.593
973.509
973.446
973.406
973.389
973.397
973.432
973.495
973.585
973.703
973.85
974.024
974.226
974.453
974.705
974.98
975.276
975.591
975.923
976.27
976.631
977.001
977.38
977.764
978.153
978.543
978.933
979.321
979.706
980.085
980.459
980.825
981.182
981.531
981.869
982.197
982.515
982.821
983.117
983.401
983.675
983.938
984.191
984.435
984.669
984.894
985.112
985.322
985.525
985.722
985.914
986.1
986.281
986.458
986.631
986.801
986.968
987.132
987.293
987.45
987.605
987.757
987.906
988.051
988.192
988.328
988.46
988.587
988.707
988.822
988.929
989.029
989.121
989.204
989.278
989.341
989.395
989.437
989.468
989.487
989.494
989.487
989.468
989.435
989.389
989.328
989.252
989.161
989.055
988.932
988.792
988.635
988.46
988.263
988.04
987.798
987.532
987.216
986.859
986.504
986.065
985.465
984.899
984.388
983.318
981.928
981.343
980.074
975.706
971.733
969.651
1022.77
1027.58
1022.93
1018.65
1018.9
1018.63
1017.25
1016.32
1016.13
1015.78
1015.27
1014.89
1014.65
1014.38
1014.09
1013.84
1013.61
1013.38
1013.15
1012.93
1012.71
1012.48
1012.26
1012.03
1011.8
1011.57
1011.33
1011.08
1010.83
1010.57
1010.3
1010.03
1009.74
1009.44
1009.14
1008.82
1008.49
1008.14
1007.79
1007.42
1007.03
1006.63
1006.22
1005.79
1005.34
1004.88
1004.4
1003.9
1003.39
1002.86
1002.31
1001.74
1001.16
1000.56
999.938
999.304
998.653
997.988
997.309
996.618
995.914
995.2
994.477
993.746
993.01
992.27
991.527
990.784
990.042
989.303
988.57
987.844
987.127
986.42
985.726
985.045
984.38
983.731
983.1
982.488
981.896
981.324
980.774
980.246
979.74
979.257
978.796
978.358
977.943
977.551
977.182
976.834
976.509
976.205
975.922
975.66
975.418
975.196
974.992
974.807
974.639
974.489
974.356
974.239
974.138
974.051
973.978
973.919
973.874
973.841
973.82
973.81
973.811
973.822
973.843
973.873
973.912
973.959
974.014
974.075
974.143
974.218
974.297
974.382
974.471
974.564
974.66
974.759
974.86
974.963
975.068
975.174
975.279
975.385
975.49
975.594
975.697
975.797
975.896
975.992
976.084
976.174
976.259
976.34
976.417
976.489
976.556
976.619
976.675
976.727
976.772
976.812
976.845
976.873
976.894
976.909
976.918
976.92
976.916
976.905
976.887
976.863
976.831
976.793
976.747
976.693
976.632
976.563
976.485
976.399
976.305
976.201
976.09
975.969
975.84
975.703
975.559
975.408
975.251
975.09
974.926
974.76
974.594
974.43
974.27
974.117
973.973
973.839
973.719
973.614
973.527
973.461
973.416
973.395
973.4
973.431
973.49
973.577
973.692
973.835
974.006
974.205
974.43
974.679
974.952
975.247
975.561
975.892
976.239
976.598
976.969
977.347
977.732
978.121
978.511
978.902
979.291
979.677
980.057
980.432
980.799
981.157
981.507
981.846
982.176
982.494
982.801
983.098
983.383
983.658
983.922
984.176
984.42
984.655
984.881
985.099
985.309
985.513
985.71
985.901
986.087
986.268
986.446
986.619
986.789
986.956
987.119
987.28
987.438
987.593
987.745
987.894
988.039
988.181
988.318
988.45
988.577
988.698
988.813
988.921
989.022
989.115
989.198
989.273
989.338
989.392
989.435
989.467
989.486
989.494
989.488
989.469
989.436
989.389
989.328
989.252
989.161
989.053
988.93
988.79
988.629
988.452
988.257
988.03
987.777
987.518
987.214
986.825
986.449
986.094
985.48
984.719
984.382
983.717
981.684
980.77
981.615
977.134
971.326
975.467
1022.49
1021.24
1020.72
1021.91
1019.42
1017.33
1017.3
1017.23
1016.33
1015.63
1015.41
1015.16
1014.76
1014.43
1014.19
1013.95
1013.68
1013.44
1013.22
1012.99
1012.76
1012.53
1012.31
1012.08
1011.84
1011.61
1011.36
1011.12
1010.86
1010.6
1010.33
1010.05
1009.76
1009.46
1009.15
1008.83
1008.5
1008.15
1007.79
1007.42
1007.04
1006.64
1006.22
1005.79
1005.34
1004.87
1004.39
1003.89
1003.38
1002.84
1002.29
1001.72
1001.14
1000.53
999.91
999.272
998.619
997.951
997.269
996.575
995.869
995.152
994.426
993.693
992.955
992.212
991.467
990.722
989.979
989.24
988.506
987.779
987.062
986.355
985.661
984.981
984.317
983.669
983.04
982.43
981.84
981.271
980.723
980.197
979.694
979.214
978.756
978.322
977.91
977.52
977.154
976.81
976.487
976.186
975.906
975.647
975.407
975.187
974.986
974.803
974.638
974.49
974.358
974.243
974.143
974.058
973.987
973.93
973.886
973.854
973.834
973.825
973.827
973.839
973.861
973.892
973.932
973.98
974.035
974.098
974.167
974.241
974.322
974.407
974.497
974.59
974.687
974.787
974.889
974.993
975.098
975.204
975.31
975.417
975.523
975.628
975.731
975.833
975.932
976.028
976.122
976.212
976.297
976.379
976.456
976.529
976.597
976.66
976.717
976.768
976.814
976.854
976.887
976.915
976.936
976.951
976.96
976.962
976.957
976.946
976.929
976.904
976.872
976.834
976.788
976.735
976.674
976.605
976.528
976.442
976.348
976.245
976.134
976.013
975.884
975.747
975.602
975.451
975.293
975.13
974.964
974.795
974.627
974.459
974.296
974.139
973.99
973.851
973.726
973.616
973.524
973.452
973.402
973.377
973.377
973.403
973.458
973.542
973.654
973.794
973.964
974.161
974.384
974.633
974.906
975.201
975.515
975.847
976.195
976.556
976.928
977.309
977.695
978.086
978.479
978.872
979.263
979.651
980.033
980.41
980.778
981.139
981.49
981.831
982.161
982.481
982.789
983.086
983.373
983.648
983.913
984.167
984.411
984.646
984.872
985.09
985.3
985.504
985.7
985.891
986.078
986.259
986.436
986.609
986.778
986.945
987.109
987.27
987.428
987.584
987.736
987.885
988.031
988.173
988.311
988.444
988.572
988.694
988.811
988.92
989.022
989.116
989.201
989.277
989.343
989.399
989.443
989.476
989.497
989.505
989.501
989.482
989.451
989.405
989.344
989.268
989.178
989.071
988.947
988.807
988.65
988.469
988.271
988.057
987.808
987.521
987.233
986.913
986.474
986.017
985.659
985.04
984.074
983.581
983.132
981.131
979.406
979.437
978.422
976.465
1022.48
1020.32
1020.26
1020.16
1018.7
1018.29
1017.74
1016.9
1016.3
1016.02
1015.65
1015.2
1014.86
1014.6
1014.32
1014.04
1013.78
1013.55
1013.31
1013.07
1012.84
1012.61
1012.38
1012.14
1011.91
1011.67
1011.42
1011.17
1010.91
1010.65
1010.38
1010.09
1009.8
1009.5
1009.19
1008.87
1008.53
1008.18
1007.82
1007.45
1007.06
1006.66
1006.24
1005.8
1005.35
1004.89
1004.4
1003.9
1003.38
1002.84
1002.29
1001.71
1001.12
1000.51
999.886
999.244
998.586
997.913
997.226
996.527
995.815
995.093
994.362
993.624
992.88
992.133
991.384
990.635
989.888
989.145
988.408
987.679
986.959
986.251
985.556
984.875
984.211
983.564
982.936
982.328
981.739
981.173
980.628
980.105
979.605
979.129
978.675
978.244
977.836
977.451
977.089
976.748
976.43
976.133
975.857
975.601
975.366
975.15
974.952
974.773
974.611
974.466
974.338
974.226
974.129
974.046
973.978
973.923
973.881
973.851
973.834
973.827
973.831
973.845
973.869
973.901
973.943
973.992
974.049
974.113
974.183
974.259
974.341
974.427
974.518
974.613
974.711
974.812
974.915
975.02
975.126
975.233
975.341
975.448
975.555
975.661
975.765
975.868
975.968
976.065
976.16
976.251
976.337
976.42
976.498
976.572
976.64
976.704
976.761
976.813
976.859
976.899
976.933
976.961
976.983
976.998
977.007
977.009
977.005
976.994
976.976
976.952
976.92
976.882
976.836
976.783
976.722
976.654
976.577
976.491
976.397
976.295
976.183
976.062
975.932
975.794
975.648
975.494
975.333
975.168
974.997
974.825
974.651
974.479
974.31
974.147
973.991
973.846
973.714
973.597
973.499
973.421
973.365
973.334
973.328
973.351
973.402
973.482
973.591
973.73
973.899
974.095
974.319
974.568
974.843
975.139
975.456
975.791
976.141
976.505
976.881
977.265
977.655
978.049
978.445
978.841
979.235
979.626
980.011
980.39
980.761
981.124
981.477
981.82
982.151
982.472
982.782
983.08
983.367
983.643
983.908
984.162
984.406
984.641
984.867
985.084
985.294
985.497
985.693
985.884
986.069
986.25
986.427
986.599
986.769
986.936
987.1
987.261
987.42
987.576
987.729
987.878
988.026
988.169
988.308
988.443
988.572
988.696
988.814
988.925
989.029
989.124
989.211
989.289
989.357
989.415
989.461
989.496
989.519
989.529
989.526
989.509
989.479
989.435
989.376
989.302
989.213
989.108
988.986
988.848
988.694
988.52
988.321
988.107
987.879
987.601
987.289
987
986.645
986.128
985.697
985.372
984.529
983.526
983.435
982.603
980.274
979.933
979.942
978.01
1020.4
1020.43
1020.03
1018.57
1018.71
1018.57
1017.41
1016.8
1016.64
1016.23
1015.66
1015.31
1015.07
1014.76
1014.43
1014.16
1013.92
1013.67
1013.42
1013.18
1012.95
1012.71
1012.47
1012.24
1012
1011.75
1011.51
1011.25
1010.99
1010.72
1010.45
1010.16
1009.87
1009.57
1009.25
1008.93
1008.59
1008.24
1007.88
1007.5
1007.11
1006.7
1006.28
1005.84
1005.39
1004.92
1004.43
1003.92
1003.4
1002.85
1002.29
1001.71
1001.12
1000.5
999.868
999.219
998.554
997.873
997.178
996.47
995.75
995.02
994.282
993.535
992.784
992.029
991.273
990.517
989.764
989.015
988.273
987.539
986.815
986.104
985.406
984.724
984.059
983.412
982.784
982.177
981.591
981.026
980.484
979.965
979.47
978.997
978.548
978.122
977.72
977.339
976.982
976.648
976.335
976.043
975.772
975.522
975.292
975.081
974.888
974.714
974.557
974.416
974.293
974.185
974.092
974.013
973.949
973.897
973.859
973.833
973.818
973.814
973.821
973.838
973.865
973.9
973.944
973.996
974.055
974.12
974.193
974.271
974.354
974.442
974.535
974.631
974.73
974.833
974.937
975.043
975.151
975.259
975.368
975.477
975.585
975.692
975.797
975.901
976.002
976.1
976.196
976.288
976.375
976.459
976.538
976.613
976.682
976.747
976.805
976.858
976.905
976.946
976.981
977.009
977.031
977.047
977.056
977.059
977.055
977.044
977.027
977.002
976.971
976.933
976.888
976.835
976.774
976.706
976.629
976.543
976.449
976.346
976.233
976.111
975.98
975.84
975.69
975.534
975.369
975.199
975.024
974.846
974.666
974.487
974.311
974.14
973.976
973.823
973.683
973.559
973.453
973.368
973.306
973.269
973.258
973.276
973.324
973.401
973.509
973.647
973.815
974.012
974.238
974.489
974.766
975.066
975.386
975.725
976.08
976.448
976.828
977.216
977.611
978.009
978.41
978.81
979.208
979.602
979.991
980.373
980.746
981.111
981.467
981.811
982.144
982.467
982.777
983.076
983.364
983.64
983.905
984.159
984.403
984.637
984.863
985.079
985.289
985.491
985.686
985.876
986.061
986.241
986.418
986.59
986.76
986.927
987.091
987.253
987.412
987.569
987.723
987.874
988.023
988.167
988.308
988.445
988.577
988.702
988.822
988.936
989.042
989.14
989.23
989.31
989.381
989.441
989.49
989.527
989.552
989.564
989.564
989.55
989.523
989.481
989.425
989.354
989.268
989.166
989.05
988.916
988.763
988.598
988.413
988.198
987.97
987.736
987.442
987.097
986.808
986.463
985.882
985.405
985.158
984.33
983.216
982.995
982.519
981.099
980.164
980.022
1019.35
1019.75
1019.29
1018.66
1018.48
1017.75
1017.4
1017.16
1016.61
1016.1
1015.82
1015.55
1015.17
1014.84
1014.58
1014.33
1014.05
1013.79
1013.55
1013.32
1013.07
1012.83
1012.6
1012.36
1012.11
1011.87
1011.62
1011.36
1011.1
1010.83
1010.55
1010.26
1009.97
1009.66
1009.34
1009.02
1008.68
1008.32
1007.96
1007.58
1007.18
1006.77
1006.35
1005.9
1005.45
1004.97
1004.47
1003.96
1003.43
1002.88
1002.31
1001.73
1001.12
1000.5
999.854
999.195
998.52
997.829
997.124
996.405
995.675
994.934
994.184
993.427
992.665
991.899
991.133
990.368
989.606
988.849
988.099
987.359
986.63
985.914
985.212
984.527
983.86
983.212
982.584
981.978
981.393
980.831
980.292
979.778
979.286
978.819
978.375
977.955
977.558
977.185
976.834
976.506
976.2
975.915
975.651
975.408
975.184
974.979
974.793
974.625
974.474
974.34
974.222
974.119
974.031
973.958
973.899
973.852
973.818
973.797
973.787
973.787
973.798
973.819
973.849
973.888
973.935
973.99
974.052
974.12
974.195
974.275
974.361
974.452
974.546
974.644
974.745
974.849
974.954
975.062
975.171
975.281
975.391
975.5
975.609
975.718
975.824
975.928
976.03
976.13
976.226
976.319
976.408
976.493
976.573
976.649
976.719
976.784
976.844
976.898
976.946
976.988
977.023
977.053
977.076
977.093
977.103
977.106
977.103
977.093
977.076
977.052
977.022
976.984
976.939
976.886
976.825
976.757
976.679
976.594
976.499
976.394
976.28
976.156
976.023
975.88
975.727
975.566
975.397
975.222
975.041
974.856
974.669
974.481
974.297
974.118
973.946
973.784
973.635
973.503
973.389
973.297
973.229
973.186
973.17
973.185
973.229
973.304
973.411
973.549
973.718
973.917
974.145
974.4
974.68
974.984
975.309
975.653
976.013
976.386
976.771
977.165
977.564
977.968
978.373
978.778
979.18
979.578
979.97
980.355
980.732
981.1
981.457
981.803
982.138
982.462
982.773
983.073
983.36
983.637
983.901
984.155
984.399
984.633
984.857
985.073
985.282
985.483
985.678
985.867
986.051
986.231
986.408
986.58
986.75
986.917
987.082
987.245
987.405
987.563
987.719
987.872
988.022
988.169
988.312
988.451
988.585
988.713
988.836
988.953
989.062
989.163
989.255
989.339
989.413
989.476
989.528
989.569
989.597
989.613
989.616
989.606
989.582
989.544
989.492
989.426
989.344
989.247
989.137
989.011
988.867
988.705
988.534
988.341
988.113
987.883
987.649
987.334
986.984
986.723
986.349
985.73
985.356
985.091
984.166
983.389
983.19
982.369
981.507
981.228
1019.08
1018.78
1018.56
1018.7
1018.08
1017.51
1017.43
1017.01
1016.51
1016.23
1015.96
1015.58
1015.25
1015
1014.73
1014.45
1014.18
1013.94
1013.7
1013.45
1013.21
1012.97
1012.73
1012.49
1012.25
1012
1011.75
1011.49
1011.22
1010.95
1010.67
1010.38
1010.09
1009.78
1009.46
1009.13
1008.79
1008.43
1008.06
1007.68
1007.28
1006.87
1006.44
1005.99
1005.52
1005.04
1004.54
1004.02
1003.48
1002.92
1002.34
1001.75
1001.13
1000.5
999.845
999.174
998.487
997.783
997.064
996.332
995.588
994.833
994.069
993.299
992.523
991.745
990.966
990.189
989.415
988.648
987.889
987.14
986.403
985.68
984.974
984.285
983.615
982.965
982.336
981.731
981.148
980.588
980.053
979.542
979.056
978.595
978.157
977.744
977.354
976.988
976.645
976.325
976.027
975.75
975.494
975.258
975.042
974.846
974.667
974.506
974.363
974.236
974.125
974.03
973.949
973.882
973.828
973.788
973.76
973.744
973.74
973.745
973.761
973.787
973.822
973.865
973.916
973.974
974.04
974.112
974.19
974.274
974.362
974.455
974.551
974.651
974.754
974.86
974.967
975.076
975.186
975.297
975.408
975.518
975.628
975.736
975.843
975.948
976.051
976.151
976.248
976.342
976.431
976.517
976.598
976.674
976.746
976.812
976.873
976.928
976.977
977.02
977.057
977.088
977.112
977.13
977.141
977.146
977.144
977.135
977.119
977.096
977.066
977.029
976.984
976.931
976.871
976.802
976.725
976.638
976.542
976.436
976.32
976.194
976.058
975.911
975.755
975.589
975.415
975.233
975.045
974.853
974.658
974.462
974.269
974.081
973.9
973.73
973.573
973.432
973.311
973.212
973.137
973.089
973.07
973.08
973.123
973.197
973.304
973.443
973.613
973.815
974.046
974.305
974.59
974.898
975.228
975.578
975.943
976.323
976.713
977.112
977.517
977.926
978.336
978.745
979.152
979.554
979.95
980.338
980.718
981.088
981.447
981.795
982.132
982.456
982.768
983.068
983.355
983.632
983.896
984.15
984.393
984.626
984.849
985.064
985.272
985.472
985.667
985.855
986.039
986.219
986.395
986.568
986.738
986.906
987.072
987.236
987.398
987.558
987.715
987.87
988.023
988.172
988.318
988.46
988.597
988.729
988.855
988.974
989.087
989.192
989.288
989.375
989.452
989.52
989.576
989.62
989.653
989.673
989.681
989.675
989.656
989.623
989.577
989.516
989.442
989.353
989.248
989.131
989.001
988.851
988.684
988.513
988.32
988.084
987.857
987.639
987.315
986.954
986.732
986.379
985.749
985.39
985.16
984.429
983.696
983.4
982.976
982.136
1018.61
1018.42
1018.31
1018.12
1017.75
1017.61
1017.22
1016.79
1016.59
1016.31
1015.92
1015.62
1015.39
1015.11
1014.82
1014.57
1014.33
1014.08
1013.83
1013.6
1013.36
1013.12
1012.88
1012.64
1012.4
1012.15
1011.89
1011.63
1011.37
1011.1
1010.82
1010.53
1010.23
1009.92
1009.6
1009.27
1008.92
1008.56
1008.19
1007.8
1007.4
1006.98
1006.55
1006.09
1005.62
1005.13
1004.62
1004.09
1003.55
1002.98
1002.39
1001.78
1001.15
1000.51
999.841
999.156
998.454
997.735
997
996.252
995.491
994.719
993.939
993.152
992.36
991.566
990.771
989.98
989.193
988.412
987.641
986.882
986.136
985.405
984.692
983.998
983.324
982.672
982.043
981.438
980.856
980.3
979.769
979.263
978.782
978.327
977.896
977.491
977.109
976.752
976.417
976.106
975.817
975.55
975.303
975.076
974.869
974.682
974.512
974.36
974.225
974.107
974.004
973.916
973.843
973.784
973.738
973.705
973.684
973.675
973.677
973.689
973.711
973.743
973.783
973.831
973.887
973.951
974.02
974.096
974.178
974.265
974.356
974.452
974.551
974.654
974.758
974.866
974.974
975.084
975.195
975.306
975.418
975.529
975.638
975.747
975.854
975.959
976.062
976.162
976.259
976.353
976.442
976.528
976.609
976.686
976.758
976.826
976.887
976.943
976.993
977.038
977.076
977.108
977.134
977.154
977.166
977.173
977.172
977.164
977.15
977.128
977.099
977.062
977.018
976.966
976.906
976.837
976.759
976.671
976.574
976.466
976.348
976.219
976.08
975.93
975.769
975.598
975.418
975.23
975.036
974.836
974.633
974.43
974.228
974.031
973.842
973.663
973.498
973.35
973.222
973.117
973.037
972.984
972.961
972.97
973.011
973.085
973.192
973.332
973.505
973.71
973.945
974.208
974.498
974.812
975.148
975.503
975.874
976.26
976.656
977.06
977.471
977.885
978.3
978.714
979.125
979.53
979.93
980.321
980.702
981.074
981.436
981.785
982.122
982.447
982.76
983.06
983.348
983.623
983.887
984.139
984.382
984.613
984.836
985.05
985.257
985.457
985.65
985.839
986.022
986.202
986.379
986.553
986.724
986.893
987.06
987.226
987.39
987.552
987.712
987.87
988.026
988.178
988.327
988.472
988.612
988.748
988.878
989.001
989.118
989.226
989.327
989.418
989.5
989.571
989.632
989.682
989.72
989.745
989.758
989.758
989.745
989.719
989.68
989.627
989.56
989.481
989.388
989.279
989.161
989.031
988.88
988.715
988.552
988.362
988.129
987.92
987.719
987.393
987.067
986.878
986.51
985.98
985.688
985.354
984.756
984.312
983.89
983.244
1018.08
1018.12
1018.04
1017.7
1017.6
1017.43
1017.03
1016.8
1016.57
1016.23
1015.96
1015.73
1015.45
1015.17
1014.93
1014.7
1014.45
1014.2
1013.97
1013.74
1013.5
1013.27
1013.03
1012.79
1012.55
1012.3
1012.05
1011.79
1011.53
1011.26
1010.97
1010.68
1010.39
1010.07
1009.75
1009.42
1009.07
1008.71
1008.34
1007.94
1007.54
1007.11
1006.67
1006.21
1005.74
1005.24
1004.72
1004.18
1003.63
1003.05
1002.45
1001.83
1001.19
1000.52
999.842
999.141
998.421
997.685
996.932
996.165
995.385
994.594
993.794
992.987
992.176
991.363
990.551
989.742
988.939
988.144
987.359
986.587
985.83
985.091
984.37
983.67
982.991
982.337
981.706
981.101
980.522
979.968
979.441
978.941
978.466
978.018
977.596
977.199
976.826
976.478
976.154
975.853
975.574
975.316
975.08
974.864
974.667
974.489
974.33
974.188
974.062
973.954
973.86
973.781
973.717
973.667
973.63
973.605
973.592
973.591
973.6
973.619
973.648
973.687
973.733
973.788
973.85
973.918
973.993
974.074
974.16
974.251
974.346
974.445
974.546
974.651
974.758
974.867
974.976
975.087
975.199
975.31
975.422
975.532
975.642
975.75
975.856
975.96
976.062
976.161
976.257
976.35
976.439
976.524
976.605
976.681
976.753
976.82
976.882
976.939
976.989
977.035
977.074
977.108
977.136
977.157
977.171
977.179
977.18
977.174
977.162
977.142
977.114
977.079
977.035
976.984
976.924
976.855
976.777
976.689
976.59
976.481
976.361
976.229
976.087
975.933
975.768
975.592
975.407
975.213
975.012
974.806
974.596
974.385
974.175
973.971
973.774
973.588
973.416
973.262
973.127
973.017
972.933
972.877
972.852
972.859
972.899
972.973
973.082
973.224
973.4
973.609
973.848
974.116
974.411
974.73
975.072
975.432
975.81
976.201
976.603
977.013
977.428
977.847
978.267
978.685
979.099
979.508
979.909
980.303
980.687
981.06
981.423
981.773
982.111
982.436
982.748
983.048
983.335
983.61
983.872
984.124
984.365
984.595
984.817
985.03
985.236
985.435
985.628
985.816
986
986.18
986.358
986.532
986.705
986.876
987.046
987.214
987.38
987.545
987.708
987.869
988.028
988.184
988.337
988.486
988.631
988.77
988.904
989.033
989.153
989.267
989.372
989.468
989.555
989.632
989.698
989.753
989.797
989.829
989.848
989.855
989.85
989.831
989.8
989.757
989.7
989.631
989.551
989.458
989.351
989.236
989.114
988.967
988.81
988.666
988.489
988.264
988.084
987.912
987.601
987.312
987.153
986.833
986.378
986.105
985.82
985.333
984.872
984.382
1017.78
1017.79
1017.69
1017.56
1017.43
1017.14
1016.96
1016.78
1016.46
1016.21
1016.01
1015.75
1015.48
1015.26
1015.04
1014.79
1014.55
1014.33
1014.11
1013.87
1013.64
1013.41
1013.18
1012.95
1012.71
1012.46
1012.21
1011.96
1011.69
1011.42
1011.14
1010.85
1010.55
1010.24
1009.92
1009.59
1009.24
1008.87
1008.5
1008.1
1007.69
1007.26
1006.82
1006.35
1005.87
1005.36
1004.84
1004.29
1003.72
1003.13
1002.52
1001.88
1001.23
1000.55
999.848
999.129
998.39
997.634
996.86
996.072
995.27
994.457
993.635
992.806
991.973
991.139
990.306
989.477
988.655
987.843
987.042
986.256
985.487
984.737
984.007
983.3
982.617
981.959
981.328
980.723
980.145
979.595
979.073
978.579
978.111
977.671
977.258
976.87
976.508
976.171
975.857
975.567
975.299
975.053
974.828
974.623
974.438
974.271
974.122
973.991
973.877
973.778
973.695
973.627
973.573
973.532
973.504
973.489
973.485
973.492
973.509
973.537
973.574
973.62
973.674
973.736
973.804
973.879
973.96
974.046
974.136
974.232
974.331
974.433
974.538
974.645
974.754
974.864
974.975
975.086
975.198
975.31
975.42
975.53
975.639
975.745
975.85
975.952
976.052
976.149
976.243
976.333
976.42
976.503
976.583
976.658
976.728
976.794
976.855
976.912
976.962
977.008
977.048
977.083
977.112
977.134
977.15
977.16
977.163
977.159
977.149
977.131
977.105
977.071
977.03
976.98
976.921
976.852
976.774
976.685
976.586
976.476
976.354
976.22
976.075
975.918
975.749
975.57
975.38
975.18
974.974
974.762
974.546
974.329
974.113
973.902
973.699
973.507
973.33
973.17
973.032
972.918
972.831
972.773
972.746
972.753
972.793
972.868
972.979
973.124
973.303
973.516
973.759
974.032
974.332
974.657
975.004
975.37
975.753
976.149
976.556
976.971
977.391
977.814
978.237
978.659
979.076
979.487
979.891
980.286
980.671
981.046
981.408
981.759
982.096
982.421
982.733
983.031
983.317
983.59
983.852
984.102
984.341
984.57
984.79
985.002
985.207
985.405
985.598
985.786
985.971
986.152
986.33
986.507
986.681
986.854
987.027
987.198
987.368
987.536
987.703
987.868
988.031
988.192
988.349
988.502
988.651
988.796
988.935
989.067
989.194
989.312
989.422
989.524
989.617
989.699
989.771
989.833
989.884
989.923
989.95
989.965
989.968
989.959
989.938
989.905
989.862
989.805
989.738
989.662
989.575
989.474
989.371
989.262
989.128
988.99
988.871
988.713
988.516
988.375
988.224
987.959
987.734
987.576
987.295
986.975
986.706
986.382
986.031
985.507
1017.56
1017.5
1017.43
1017.39
1017.21
1017.02
1016.89
1016.65
1016.42
1016.24
1016
1015.76
1015.55
1015.34
1015.1
1014.88
1014.67
1014.45
1014.22
1014
1013.78
1013.56
1013.33
1013.1
1012.86
1012.62
1012.38
1012.12
1011.86
1011.59
1011.32
1011.03
1010.73
1010.42
1010.1
1009.76
1009.41
1009.05
1008.67
1008.27
1007.86
1007.43
1006.98
1006.51
1006.01
1005.5
1004.96
1004.41
1003.83
1003.22
1002.6
1001.95
1001.27
1000.58
999.86
999.12
998.36
997.581
996.785
995.972
995.146
994.308
993.461
992.607
991.75
990.892
990.036
989.185
988.342
987.51
986.691
985.889
985.106
984.344
983.604
982.89
982.202
981.54
980.907
980.303
979.728
979.182
978.666
978.178
977.719
977.288
976.884
976.507
976.157
975.831
975.53
975.252
974.996
974.763
974.55
974.357
974.185
974.03
973.893
973.774
973.67
973.583
973.512
973.454
973.411
973.381
973.363
973.358
973.364
973.38
973.407
973.444
973.49
973.544
973.606
973.676
973.751
973.833
973.92
974.013
974.109
974.209
974.312
974.418
974.526
974.636
974.748
974.859
974.971
975.084
975.195
975.306
975.415
975.524
975.63
975.734
975.836
975.936
976.032
976.126
976.216
976.304
976.387
976.467
976.543
976.615
976.683
976.747
976.806
976.86
976.91
976.955
976.995
977.029
977.058
977.082
977.099
977.111
977.116
977.114
977.105
977.09
977.066
977.035
976.996
976.948
976.89
976.823
976.745
976.657
976.558
976.447
976.325
976.19
976.042
975.883
975.712
975.529
975.336
975.133
974.923
974.706
974.486
974.264
974.044
973.829
973.621
973.426
973.245
973.082
972.941
972.825
972.736
972.677
972.65
972.657
972.699
972.776
972.889
973.038
973.22
973.436
973.684
973.962
974.267
974.596
974.948
975.319
975.707
976.108
976.519
976.938
977.362
977.788
978.214
978.638
979.057
979.47
979.875
980.271
980.657
981.031
981.394
981.743
982.08
982.403
982.713
983.01
983.294
983.565
983.824
984.073
984.31
984.537
984.756
984.966
985.17
985.368
985.56
985.749
985.933
986.115
986.296
986.474
986.651
986.827
987.003
987.177
987.351
987.524
987.696
987.865
988.033
988.198
988.36
988.519
988.673
988.823
988.967
989.105
989.237
989.361
989.477
989.585
989.684
989.773
989.852
989.921
989.979
990.027
990.063
990.087
990.1
990.102
990.093
990.072
990.041
990.001
989.95
989.89
989.825
989.75
989.663
989.58
989.492
989.378
989.269
989.183
989.055
988.896
988.799
988.684
988.475
988.307
988.18
987.96
987.692
987.454
987.193
986.701
1017.32
1017.31
1017.26
1017.17
1017.04
1016.94
1016.76
1016.56
1016.41
1016.21
1015.99
1015.8
1015.6
1015.38
1015.17
1014.97
1014.76
1014.55
1014.34
1014.13
1013.91
1013.69
1013.47
1013.25
1013.02
1012.78
1012.54
1012.29
1012.03
1011.77
1011.49
1011.21
1010.91
1010.6
1010.28
1009.95
1009.6
1009.23
1008.85
1008.45
1008.04
1007.6
1007.15
1006.67
1006.17
1005.65
1005.1
1004.54
1003.94
1003.33
1002.69
1002.02
1001.33
1000.61
999.875
999.114
998.331
997.527
996.705
995.867
995.013
994.148
993.273
992.392
991.507
990.622
989.739
988.863
987.997
987.143
986.305
985.486
984.687
983.912
983.162
982.438
981.745
981.08
980.446
979.843
979.27
978.729
978.219
977.74
977.29
976.869
976.477
976.112
975.774
975.461
975.173
974.908
974.667
974.447
974.247
974.068
973.909
973.767
973.643
973.536
973.446
973.371
973.311
973.265
973.233
973.215
973.208
973.214
973.23
973.257
973.295
973.342
973.397
973.461
973.532
973.609
973.693
973.783
973.877
973.976
974.078
974.184
974.292
974.402
974.514
974.627
974.741
974.854
974.967
975.079
975.191
975.301
975.409
975.515
975.618
975.72
975.818
975.913
976.006
976.095
976.181
976.263
976.341
976.417
976.488
976.555
976.619
976.678
976.734
976.785
976.832
976.875
976.912
976.946
976.974
976.998
977.015
977.028
977.034
977.034
977.028
977.014
976.994
976.965
976.928
976.882
976.827
976.763
976.687
976.6
976.503
976.393
976.27
976.135
975.987
975.827
975.655
975.471
975.276
975.071
974.859
974.64
974.417
974.194
973.971
973.754