# vtk DataFile Version 2.0
LBE mesh
ASCII
DATASET STRUCTURED_POINTS
DIMENSIONS 300 100 1
ASPECT_RATIO 1 1 1
ORIGIN 0 0 0
POINT_DATA 30000
SCALARS rho double 1
LOOKUP_TABLE default
1046.23
1014.47
1013.76
1020.26
1018.44
1014.53
1014.34
1014.86
1014.09
1013.3
1013.13
1012.97
1012.6
1012.3
1012.1
1011.88
1011.64
1011.41
1011.21
1010.99
1010.77
1010.55
1010.33
1010.11
1009.88
1009.64
1009.4
1009.15
1008.89
1008.63
1008.35
1008.06
1007.77
1007.46
1007.14
1006.8
1006.46
1006.1
1005.72
1005.33
1004.92
1004.5
1004.06
1003.6
1003.13
1002.63
1002.12
1001.59
1001.04
1000.47
999.881
999.273
998.646
998
997.336
996.656
995.958
995.244
994.516
993.775
993.021
992.257
991.484
990.703
989.918
989.128
988.337
987.546
986.757
985.972
985.194
984.425
983.665
982.918
982.184
981.466
980.765
980.082
979.419
978.777
978.156
977.558
976.983
976.432
975.905
975.402
974.923
974.469
974.039
973.634
973.252
972.894
972.559
972.247
971.956
971.688
971.441
971.214
971.008
970.821
970.652
970.503
970.37
970.255
970.157
970.075
970.008
969.957
969.92
969.897
969.888
969.893
969.911
969.94
969.983
970.037
970.103
970.18
970.269
970.368
970.478
970.598
970.728
970.868
971.018
971.177
971.346
971.524
971.71
971.906
972.11
972.322
972.543
972.772
973.008
973.252
973.503
973.76
974.025
974.295
974.571
974.852
975.138
975.428
975.722
976.019
976.319
976.621
976.923
977.227
977.53
977.832
978.132
978.43
978.724
979.014
979.3
979.58
979.853
980.12
980.379
980.629
980.87
981.103
981.325
981.536
981.736
981.925
982.102
982.267
982.419
982.56
982.688
982.803
982.905
982.995
983.072
983.136
983.188
983.227
983.253
983.267
983.267
983.255
983.229
983.19
983.137
983.069
982.987
982.89
982.777
982.648
982.502
982.34
982.16
981.964
981.75
981.52
981.273
981.012
980.735
980.445
980.143
979.829
979.508
979.18
978.847
978.512
978.177
977.846
977.521
977.204
976.899
976.609
976.335
976.08
975.848
975.64
975.457
975.303
975.177
975.081
975.015
974.979
974.975
975
975.055
975.139
975.249
975.385
975.545
975.726
975.927
976.145
976.378
976.622
976.877
977.14
977.408
977.678
977.949
978.219
978.485
978.747
979.002
979.248
979.485
979.712
979.928
980.133
980.325
980.504
980.671
980.825
980.966
981.096
981.214
981.321
981.418
981.506
981.584
981.654
981.717
981.773
981.823
981.867
981.907
981.943
981.974
982.002
982.027
982.047
982.065
982.077
982.085
982.087
982.084
982.072
982.051
982.02
981.978
981.918
981.842
981.754
981.638
981.478
981.31
981.135
980.843
980.47
980.245
979.883
978.933
978.32
978.545
976.643
972.879
975.037
975.919
952.171
1029.09
1025.54
1021.45
1016.25
1016.44
1016.61
1015.44
1014.28
1014.05
1013.81
1013.33
1012.94
1012.71
1012.45
1012.17
1011.92
1011.7
1011.48
1011.25
1011.03
1010.81
1010.58
1010.36
1010.13
1009.89
1009.65
1009.41
1009.15
1008.89
1008.62
1008.34
1008.05
1007.75
1007.44
1007.12
1006.78
1006.44
1006.07
1005.69
1005.3
1004.89
1004.47
1004.03
1003.57
1003.09
1002.59
1002.08
1001.55
1001
1000.42
999.835
999.226
998.598
997.952
997.289
996.608
995.911
995.198
994.471
993.73
992.978
992.216
991.444
990.666
989.882
989.095
988.306
987.518
986.732
985.951
985.176
984.41
983.654
982.91
982.18
981.465
980.768
980.088
979.429
978.789
978.172
977.577
977.005
976.457
975.932
975.432
974.956
974.504
974.076
973.672
973.293
972.936
972.603
972.292
972.003
971.736
971.49
971.264
971.058
970.872
970.704
970.554
970.422
970.308
970.21
970.127
970.061
970.009
969.972
969.949
969.94
969.945
969.962
969.991
970.033
970.087
970.153
970.229
970.317
970.415
970.524
970.643
970.772
970.912
971.06
971.219
971.386
971.563
971.749
971.943
972.146
972.357
972.576
972.803
973.038
973.28
973.53
973.786
974.049
974.318
974.593
974.873
975.157
975.446
975.739
976.034
976.333
976.633
976.935
977.237
977.538
977.839
978.139
978.436
978.729
979.019
979.304
979.583
979.856
980.122
980.381
980.631
980.872
981.104
981.326
981.537
981.737
981.926
982.103
982.268
982.42
982.561
982.689
982.804
982.906
982.996
983.073
983.137
983.189
983.228
983.254
983.267
983.268
983.255
983.23
983.191
983.139
983.072
982.99
982.894
982.782
982.654
982.51
982.35
982.172
981.978
981.767
981.54
981.296
981.037
980.763
980.476
980.176
979.866
979.547
979.22
978.889
978.556
978.223
977.892
977.567
977.251
976.945
976.654
976.378
976.122
975.888
975.677
975.492
975.334
975.205
975.106
975.036
974.997
974.989
975.011
975.062
975.142
975.249
975.381
975.538
975.716
975.914
976.129
976.359
976.602
976.855
977.116
977.382
977.652
977.922
978.191
978.458
978.719
978.974
979.221
979.46
979.688
979.905
980.11
980.303
980.484
980.652
980.808
980.951
981.082
981.201
981.31
981.408
981.496
981.575
981.645
981.708
981.765
981.815
981.859
981.898
981.933
981.964
981.991
982.014
982.033
982.048
982.059
982.065
982.065
982.058
982.043
982.02
981.985
981.937
981.877
981.797
981.694
981.574
981.43
981.237
981.005
980.774
980.46
979.992
979.565
979.191
978.276
977.063
976.649
975.557
971.456
967.696
965.635
1020.97
1025.8
1021.13
1016.83
1017.08
1016.81
1015.43
1014.49
1014.3
1013.95
1013.44
1013.06
1012.82
1012.54
1012.25
1012
1011.77
1011.53
1011.3
1011.07
1010.85
1010.62
1010.39
1010.15
1009.92
1009.67
1009.42
1009.17
1008.9
1008.63
1008.35
1008.06
1007.76
1007.44
1007.12
1006.78
1006.43
1006.06
1005.68
1005.29
1004.88
1004.45
1004.01
1003.55
1003.07
1002.57
1002.06
1001.52
1000.97
1000.4
999.804
999.193
998.565
997.917
997.253
996.571
995.872
995.159
994.431
993.69
992.937
992.174
991.402
990.624
989.84
989.053
988.265
987.477
986.692
985.912
985.139
984.374
983.619
982.878
982.15
981.437
980.742
980.065
979.407
978.771
978.157
977.564
976.995
976.449
975.928
975.43
974.957
974.507
974.082
973.681
973.303
972.949
972.618
972.309
972.022
971.756
971.512
971.288
971.084
970.898
970.732
970.584
970.453
970.339
970.241
970.16
970.094
970.043
970.007
969.984
969.975
969.98
969.997
970.027
970.068
970.122
970.188
970.264
970.351
970.45
970.558
970.677
970.805
970.944
971.092
971.25
971.417
971.592
971.777
971.97
972.173
972.383
972.601
972.827
973.061
973.303
973.551
973.806
974.068
974.336
974.61
974.889
975.173
975.461
975.753
976.048
976.346
976.646
976.947
977.248
977.55
977.851
978.15
978.447
978.74
979.03
979.315
979.594
979.868
980.134
980.393
980.643
980.885
981.117
981.339
981.55
981.751
981.94
982.117
982.282
982.435
982.576
982.704
982.819
982.922
983.011
983.088
983.152
983.204
983.243
983.269
983.283
983.283
983.272
983.246
983.208
983.156
983.09
983.01
982.915
982.805
982.679
982.537
982.378
982.203
982.011
981.802
981.577
981.336
981.078
980.806
980.52
980.222
979.912
979.593
979.267
978.935
978.601
978.266
977.934
977.607
977.287
976.979
976.684
976.405
976.145
975.906
975.691
975.502
975.34
975.206
975.103
975.03
974.987
974.976
974.994
975.043
975.12
975.225
975.356
975.511
975.688
975.885
976.099
976.33
976.573
976.826
977.088
977.355
977.626
977.897
978.168
978.436
978.699
978.956
979.205
979.445
979.675
979.894
980.101
980.296
980.479
980.648
980.805
980.95
981.082
981.202
981.311
981.409
981.497
981.577
981.647
981.71
981.765
981.815
981.858
981.897
981.931
981.96
981.986
982.008
982.026
982.039
982.049
982.053
982.051
982.043
982.027
982.002
981.966
981.915
981.853
981.775
981.668
981.537
981.401
981.219
980.955
980.706
980.476
979.991
979.371
979.175
978.648
976.794
976.071
977.053
972.804
967.213
971.295
1020.69
1019.44
1018.91
1020.11
1017.61
1015.51
1015.48
1015.41
1014.51
1013.81
1013.58
1013.33
1012.93
1012.6
1012.36
1012.11
1011.85
1011.6
1011.37
1011.14
1010.91
1010.67
1010.44
1010.2
1009.96
1009.71
1009.46
1009.2
1008.94
1008.66
1008.38
1008.08
1007.78
1007.46
1007.14
1006.8
1006.44
1006.08
1005.69
1005.3
1004.88
1004.46
1004.01
1003.55
1003.07
1002.57
1002.05
1001.51
1000.96
1000.38
999.787
999.174
998.542
997.892
997.224
996.539
995.838
995.122
994.391
993.647
992.891
992.125
991.351
990.569
989.783
988.994
988.204
987.414
986.628
985.846
985.072
984.306
983.552
982.81
982.083
981.371
980.677
980.002
979.346
978.712
978.1
977.51
976.944
976.401
975.882
975.388
974.917
974.471
974.049
973.651
973.277
972.926
972.598
972.292
972.007
971.745
971.503
971.281
971.079
970.896
970.732
970.585
970.456
970.344
970.248
970.168
970.104
970.054
970.019
969.997
969.989
969.995
970.013
970.043
970.086
970.14
970.206
970.282
970.37
970.469
970.577
970.697
970.825
970.964
971.112
971.269
971.436
971.612
971.796
971.989
972.191
972.401
972.619
972.845
973.078
973.319
973.568
973.822
974.084
974.352
974.625
974.904
975.188
975.475
975.767
976.063
976.361
976.661
976.962
977.264
977.566
977.867
978.167
978.464
978.758
979.048
979.334
979.615
979.888
980.156
980.415
980.666
980.909
981.142
981.364
981.576
981.777
981.967
982.145
982.311
982.464
982.605
982.733
982.849
982.952
983.041
983.118
983.183
983.234
983.273
983.299
983.313
983.314
983.302
983.278
983.24
983.189
983.125
983.046
982.952
982.844
982.72
982.58
982.423
982.25
982.06
981.853
981.63
981.389
981.133
980.861
980.575
980.276
979.965
979.644
979.316
978.981
978.643
978.305
977.968
977.635
977.311
976.996
976.695
976.411
976.145
975.901
975.68
975.485
975.318
975.18
975.072
974.995
974.949
974.935
974.952
974.999
975.075
975.179
975.31
975.465
975.643
975.842
976.058
976.29
976.536
976.792
977.056
977.326
977.6
977.875
978.149
978.42
978.686
978.946
979.198
979.441
979.673
979.894
980.104
980.301
980.485
980.656
980.815
980.96
981.093
981.214
981.323
981.421
981.51
981.588
981.658
981.72
981.774
981.823
981.865
981.902
981.935
981.964
981.988
982.009
982.026
982.039
982.048
982.051
982.049
982.041
982.024
981.998
981.963
981.916
981.85
981.769
981.675
981.548
981.384
981.219
981.023
980.707
980.378
980.147
979.66
978.838
978.493
978.202
976.393
974.851
975.073
974.239
972.355
1020.69
1018.52
1018.46
1018.36
1016.9
1016.49
1015.94
1015.09
1014.49
1014.2
1013.83
1013.39
1013.04
1012.78
1012.5
1012.21
1011.95
1011.71
1011.47
1011.23
1010.99
1010.76
1010.52
1010.27
1010.03
1009.78
1009.53
1009.26
1008.99
1008.72
1008.43
1008.13
1007.83
1007.51
1007.18
1006.84
1006.48
1006.11
1005.73
1005.33
1004.91
1004.48
1004.03
1003.57
1003.08
1002.58
1002.06
1001.52
1000.96
1000.38
999.782
999.165
998.528
997.874
997.201
996.511
995.805
995.082
994.346
993.596
992.835
992.063
991.283
990.497
989.705
988.911
988.116
987.322
986.532
985.747
984.969
984.201
983.444
982.701
981.972
981.26
980.566
979.891
979.237
978.605
977.995
977.407
976.844
976.304
975.789
975.298
974.832
974.389
973.971
973.578
973.208
972.86
972.536
972.234
971.953
971.695
971.456
971.238
971.039
970.859
970.698
970.554
970.428
970.318
970.225
970.147
970.085
970.037
970.004
969.984
969.978
969.986
970.005
970.037
970.081
970.137
970.204
970.282
970.371
970.471
970.58
970.701
970.831
970.97
971.119
971.277
971.444
971.62
971.806
971.999
972.201
972.412
972.63
972.856
973.091
973.332
973.58
973.836
974.098
974.366
974.64
974.919
975.204
975.492
975.785
976.081
976.379
976.68
976.982
977.285
977.588
977.89
978.191
978.489
978.785
979.076
979.363
979.645
979.92
980.188
980.449
980.701
980.945
981.179
981.402
981.615
981.818
982.008
982.187
982.353
982.507
982.649
982.777
982.893
982.996
983.086
983.163
983.227
983.279
983.318
983.344
983.358
983.359
983.348
983.324
983.287
983.237
983.174
983.096
983.004
982.898
982.776
982.637
982.483
982.311
982.123
981.917
981.694
981.454
981.197
980.924
980.637
980.335
980.021
979.697
979.363
979.024
978.68
978.335
977.991
977.651
977.319
976.996
976.688
976.395
976.122
975.871
975.644
975.443
975.27
975.127
975.015
974.934
974.886
974.87
974.885
974.932
975.008
975.114
975.246
975.403
975.584
975.785
976.005
976.241
976.491
976.751
977.02
977.295
977.573
977.852
978.131
978.407
978.678
978.942
979.198
979.444
979.68
979.904
980.117
980.316
980.503
980.676
980.835
980.982
981.115
981.236
981.345
981.443
981.531
981.608
981.677
981.738
981.791
981.839
981.88
981.916
981.948
981.975
981.999
982.019
982.035
982.048
982.057
982.061
982.06
982.052
982.038
982.014
981.979
981.935
981.875
981.794
981.701
981.593
981.437
981.248
981.08
980.846
980.455
980.151
979.954
979.253
978.409
978.472
977.827
975.724
975.599
975.83
974.085
1018.6
1018.64
1018.23
1016.77
1016.92
1016.78
1015.61
1015
1014.84
1014.43
1013.85
1013.5
1013.26
1012.95
1012.62
1012.35
1012.1
1011.85
1011.59
1011.35
1011.11
1010.87
1010.62
1010.38
1010.13
1009.87
1009.62
1009.35
1009.08
1008.8
1008.51
1008.21
1007.9
1007.58
1007.25
1006.9
1006.54
1006.17
1005.79
1005.38
1004.97
1004.53
1004.08
1003.61
1003.12
1002.61
1002.09
1001.54
1000.98
1000.39
999.79
999.166
998.524
997.862
997.182
996.484
995.77
995.04
994.295
993.537
992.767
991.987
991.198
990.403
989.604
988.801
987.999
987.198
986.4
985.609
984.826
984.053
983.292
982.545
981.814
981.1
980.405
979.73
979.077
978.445
977.837
977.252
976.691
976.155
975.644
975.157
974.695
974.258
973.845
973.456
973.09
972.748
972.429
972.132
971.856
971.602
971.368
971.154
970.959
970.784
970.626
970.486
970.363
970.257
970.167
970.093
970.034
969.989
969.959
969.942
969.939
969.949
969.971
970.006
970.052
970.11
970.18
970.261
970.352
970.454
970.566
970.688
970.82
970.961
971.112
971.272
971.441
971.62
971.806
972.002
972.205
972.417
972.637
972.865
973.1
973.343
973.593
973.85
974.113
974.383
974.658
974.938
975.224
975.514
975.808
976.105
976.405
976.707
977.011
977.315
977.619
977.923
978.225
978.525
978.822
979.115
979.403
979.686
979.963
980.232
980.495
980.748
980.993
981.228
981.453
981.667
981.871
982.062
982.241
982.409
982.564
982.705
982.834
982.951
983.054
983.144
983.221
983.285
983.337
983.376
983.402
983.416
983.418
983.407
983.383
983.347
983.298
983.236
983.16
983.069
982.964
982.844
982.707
982.554
982.383
982.195
981.99
981.767
981.526
981.268
980.993
980.701
980.396
980.077
979.747
979.407
979.06
978.708
978.354
978.001
977.652
977.31
976.978
976.66
976.359
976.077
975.818
975.583
975.376
975.197
975.05
974.934
974.85
974.8
974.783
974.798
974.845
974.923
975.03
975.166
975.327
975.512
975.718
975.942
976.184
976.439
976.705
976.98
977.261
977.545
977.831
978.115
978.397
978.672
978.942
979.203
979.454
979.694
979.922
980.137
980.34
980.528
980.703
980.864
981.011
981.145
981.266
981.375
981.473
981.56
981.636
981.704
981.764
981.816
981.862
981.902
981.937
981.968
981.995
982.018
982.038
982.055
982.069
982.079
982.084
982.085
982.08
982.068
982.049
982.018
981.975
981.924
981.856
981.759
981.652
981.539
981.364
981.14
980.971
980.747
980.293
979.946
979.839
979.172
978.235
978.213
977.975
976.82
976.191
976.357
1017.56
1017.96
1017.5
1016.87
1016.7
1015.97
1015.61
1015.37
1014.82
1014.31
1014.03
1013.75
1013.38
1013.04
1012.78
1012.52
1012.25
1011.98
1011.74
1011.49
1011.24
1011
1010.75
1010.5
1010.25
1010
1009.73
1009.47
1009.19
1008.91
1008.62
1008.32
1008
1007.68
1007.35
1007
1006.64
1006.26
1005.87
1005.47
1005.04
1004.6
1004.15
1003.67
1003.18
1002.67
1002.14
1001.59
1001.01
1000.42
999.811
999.179
998.527
997.856
997.167
996.459
995.734
994.993
994.237
993.468
992.686
991.894
991.094
990.288
989.476
988.663
987.85
987.039
986.233
985.433
984.642
983.862
983.095
982.343
981.607
980.89
980.193
979.517
978.863
978.232
977.625
977.043
976.485
975.953
975.446
974.964
974.507
974.075
973.667
973.284
972.925
972.589
972.275
971.984
971.714
971.465
971.237
971.028
970.839
970.668
970.515
970.38
970.261
970.159
970.073
970.003
969.948
969.907
969.88
969.867
969.868
969.882
969.908
969.946
969.996
970.058
970.131
970.215
970.31
970.416
970.531
970.657
970.792
970.937
971.092
971.255
971.428
971.609
971.799
971.997
972.204
972.419
972.641
972.872
973.11
973.355
973.608
973.867
974.132
974.404
974.681
974.964
975.252
975.544
975.839
976.139
976.441
976.745
977.05
977.356
977.662
977.967
978.271
978.573
978.871
979.166
979.455
979.74
980.018
980.289
980.552
980.808
981.054
981.29
981.516
981.731
981.935
982.128
982.308
982.476
982.631
982.773
982.903
983.02
983.123
983.213
983.291
983.355
983.407
983.446
983.472
983.486
983.488
983.477
983.454
983.419
983.371
983.309
983.234
983.144
983.04
982.921
982.785
982.632
982.462
982.275
982.068
981.844
981.601
981.34
981.061
980.766
980.455
980.129
979.791
979.443
979.087
978.725
978.361
977.997
977.637
977.284
976.942
976.614
976.303
976.012
975.744
975.502
975.288
975.104
974.951
974.832
974.746
974.695
974.677
974.693
974.742
974.822
974.933
975.073
975.238
975.428
975.64
975.871
976.119
976.381
976.654
976.936
977.224
977.515
977.808
978.099
978.387
978.669
978.944
979.211
979.467
979.712
979.944
980.163
980.368
980.56
980.737
980.899
981.047
981.182
981.303
981.412
981.509
981.595
981.671
981.738
981.796
981.847
981.892
981.931
981.966
981.997
982.024
982.048
982.069
982.087
982.102
982.114
982.122
982.127
982.126
982.118
982.104
982.081
982.045
981.997
981.942
981.866
981.757
981.645
981.529
981.331
981.099
980.957
980.708
980.224
979.993
979.889
979.161
978.61
978.676
978.167
977.691
977.852
1017.29
1017
1016.78
1016.93
1016.31
1015.74
1015.66
1015.23
1014.74
1014.46
1014.18
1013.8
1013.47
1013.22
1012.95
1012.66
1012.39
1012.14
1011.9
1011.64
1011.39
1011.15
1010.9
1010.65
1010.4
1010.14
1009.88
1009.61
1009.33
1009.04
1008.75
1008.45
1008.13
1007.81
1007.47
1007.12
1006.75
1006.38
1005.98
1005.57
1005.15
1004.7
1004.24
1003.76
1003.26
1002.74
1002.2
1001.65
1001.07
1000.47
999.844
999.202
998.54
997.857
997.156
996.435
995.697
994.942
994.173
993.389
992.593
991.786
990.972
990.151
989.325
988.498
987.672
986.848
986.029
985.218
984.417
983.628
982.853
982.094
981.353
980.632
979.931
979.253
978.598
977.968
977.362
976.782
976.228
975.699
975.197
974.72
974.269
973.843
973.442
973.065
972.712
972.383
972.076
971.791
971.528
971.286
971.063
970.861
970.677
970.512
970.364
970.234
970.121
970.024
969.943
969.878
969.827
969.791
969.768
969.76
969.765
969.783
969.814
969.857
969.913
969.979
970.057
970.146
970.246
970.357
970.477
970.608
970.748
970.898
971.058
971.226
971.404
971.59
971.784
971.987
972.198
972.418
972.645
972.879
973.121
973.371
973.627
973.89
974.159
974.434
974.714
975
975.29
975.585
975.883
976.185
976.49
976.795
977.103
977.411
977.719
978.025
978.331
978.634
978.934
979.23
979.521
979.806
980.086
980.358
980.622
980.878
981.125
981.362
981.59
981.806
982.01
982.203
982.384
982.553
982.708
982.851
982.981
983.098
983.201
983.292
983.369
983.434
983.485
983.524
983.551
983.565
983.567
983.557
983.534
983.498
983.45
983.389
983.314
983.226
983.122
983.003
982.867
982.715
982.544
982.356
982.148
981.922
981.675
981.411
981.127
980.826
980.508
980.174
979.828
979.47
979.103
978.73
978.355
977.979
977.608
977.244
976.89
976.551
976.229
975.929
975.652
975.403
975.182
974.993
974.837
974.714
974.627
974.574
974.557
974.574
974.625
974.709
974.824
974.968
975.139
975.335
975.554
975.792
976.048
976.317
976.599
976.889
977.184
977.484
977.784
978.083
978.378
978.667
978.949
979.221
979.483
979.733
979.97
980.193
980.401
980.595
980.774
980.939
981.088
981.224
981.345
981.454
981.551
981.636
981.711
981.777
981.835
981.885
981.93
981.969
982.003
982.034
982.062
982.087
982.11
982.13
982.148
982.164
982.176
982.185
982.189
982.189
982.18
982.165
982.143
982.104
982.052
981.997
981.919
981.799
981.688
981.584
981.376
981.132
981.033
980.815
980.335
980.147
980.123
979.641
979.214
979.276
979.3
979.036
1016.84
1016.65
1016.54
1016.36
1015.98
1015.85
1015.46
1015.03
1014.83
1014.55
1014.16
1013.86
1013.63
1013.35
1013.05
1012.79
1012.55
1012.3
1012.04
1011.8
1011.56
1011.31
1011.06
1010.81
1010.56
1010.3
1010.04
1009.77
1009.49
1009.2
1008.91
1008.6
1008.28
1007.96
1007.62
1007.26
1006.9
1006.51
1006.12
1005.7
1005.27
1004.82
1004.36
1003.87
1003.36
1002.84
1002.29
1001.72
1001.13
1000.52
999.89
999.236
998.561
997.865
997.149
996.414
995.66
994.889
994.102
993.302
992.488
991.665
990.832
989.994
989.151
988.307
987.464
986.625
985.792
984.967
984.154
983.353
982.568
981.801
981.053
980.326
979.622
978.941
978.285
977.654
977.05
976.472
975.921
975.397
974.9
974.429
973.983
973.564
973.17
972.801
972.456
972.134
971.834
971.557
971.301
971.065
970.85
970.654
970.477
970.318
970.176
970.052
969.944
969.853
969.777
969.717
969.671
969.64
969.623
969.62
969.631
969.654
969.691
969.739
969.8
969.873
969.956
970.052
970.158
970.275
970.402
970.54
970.687
970.844
971.01
971.185
971.369
971.562
971.763
971.973
972.19
972.416
972.649
972.889
973.137
973.391
973.653
973.92
974.194
974.474
974.758
975.048
975.342
975.64
975.942
976.246
976.553
976.862
977.172
977.481
977.791
978.1
978.406
978.711
979.011
979.308
979.6
979.886
980.167
980.439
980.704
980.96
981.208
981.445
981.672
981.889
982.093
982.286
982.467
982.636
982.792
982.935
983.064
983.181
983.285
983.376
983.453
983.518
983.569
983.608
983.635
983.649
983.651
983.64
983.617
983.582
983.534
983.472
983.398
983.309
983.205
983.085
982.949
982.796
982.624
982.434
982.224
981.995
981.745
981.475
981.186
980.878
980.552
980.21
979.854
979.485
979.108
978.724
978.336
977.948
977.565
977.189
976.823
976.473
976.142
975.832
975.547
975.29
975.064
974.869
974.709
974.584
974.495
974.442
974.426
974.445
974.499
974.586
974.706
974.856
975.033
975.236
975.462
975.708
975.972
976.25
976.539
976.838
977.142
977.45
977.759
978.065
978.368
978.665
978.953
979.232
979.5
979.755
979.997
980.224
980.437
980.634
980.815
980.981
981.132
981.268
981.391
981.499
981.596
981.681
981.756
981.822
981.879
981.929
981.974
982.013
982.049
982.081
982.11
982.137
982.163
982.186
982.208
982.228
982.247
982.261
982.272
982.28
982.282
982.275
982.262
982.242
982.203
982.151
982.102
982.025
981.903
981.806
981.716
981.505
981.301
981.245
981.03
980.679
980.606
980.537
980.278
980.236
980.316
980.364
1016.32
1016.36
1016.28
1015.95
1015.85
1015.68
1015.28
1015.06
1014.82
1014.48
1014.21
1013.98
1013.7
1013.42
1013.18
1012.94
1012.68
1012.43
1012.2
1011.96
1011.72
1011.47
1011.23
1010.98
1010.73
1010.47
1010.21
1009.94
1009.66
1009.37
1009.08
1008.77
1008.45
1008.12
1007.78
1007.43
1007.06
1006.67
1006.27
1005.85
1005.42
1004.96
1004.49
1004
1003.48
1002.95
1002.39
1001.82
1001.22
1000.59
999.948
999.281
998.591
997.88
997.147
996.395
995.623
994.833
994.027
993.207
992.373
991.529
990.676
989.817
988.954
988.091
987.229
986.371
985.521
984.681
983.853
983.039
982.243
981.466
980.71
979.976
979.267
978.583
977.925
977.294
976.691
976.116
975.569
975.049
974.558
974.093
973.655
973.243
972.857
972.496
972.159
971.845
971.554
971.285
971.037
970.809
970.601
970.412
970.242
970.089
969.954
969.836
969.734
969.649
969.578
969.523
969.484
969.458
969.447
969.449
969.466
969.495
969.537
969.592
969.66
969.739
969.83
969.933
970.047
970.172
970.307
970.452
970.608
970.773
970.948
971.131
971.324
971.526
971.735
971.953
972.179
972.413
972.654
972.902
973.157
973.418
973.686
973.961
974.24
974.525
974.816
975.11
975.409
975.711
976.017
976.325
976.635
976.946
977.258
977.57
977.881
978.191
978.499
978.804
979.105
979.402
979.694
979.981
980.26
980.533
980.797
981.053
981.299
981.536
981.763
981.978
982.182
982.375
982.555
982.723
982.878
983.021
983.15
983.267
983.37
983.46
983.538
983.602
983.653
983.692
983.718
983.732
983.734
983.723
983.7
983.664
983.615
983.554
983.478
983.388
983.283
983.163
983.025
982.87
982.697
982.505
982.292
982.059
981.805
981.53
981.234
980.919
980.585
980.234
979.868
979.489
979.1
978.704
978.305
977.905
977.509
977.121
976.745
976.384
976.043
975.725
975.432
975.168
974.936
974.737
974.573
974.446
974.356
974.303
974.288
974.309
974.366
974.458
974.583
974.738
974.922
975.132
975.366
975.62
975.892
976.179
976.477
976.785
977.098
977.415
977.732
978.047
978.357
978.662
978.957
979.243
979.517
979.778
980.025
980.257
980.473
980.673
980.857
981.025
981.178
981.315
981.438
981.547
981.644
981.729
981.805
981.87
981.928
981.979
982.024
982.064
982.101
982.135
982.167
982.198
982.227
982.255
982.282
982.308
982.333
982.356
982.375
982.391
982.405
982.411
982.408
982.401
982.387
982.351
982.303
982.267
982.197
982.079
982.006
981.944
981.751
981.592
981.586
981.448
981.22
981.224
981.297
981.245
981.33
981.628
1016.03
1016.04
1015.95
1015.82
1015.69
1015.4
1015.23
1015.05
1014.73
1014.48
1014.28
1014.02
1013.75
1013.52
1013.3
1013.05
1012.8
1012.58
1012.35
1012.11
1011.87
1011.64
1011.4
1011.15
1010.9
1010.65
1010.38
1010.12
1009.84
1009.55
1009.26
1008.95
1008.63
1008.3
1007.96
1007.6
1007.23
1006.85
1006.44
1006.02
1005.58
1005.12
1004.64
1004.14
1003.62
1003.08
1002.51
1001.92
1001.31
1000.68
1000.02
999.335
998.63
997.901
997.15
996.378
995.586
994.775
993.947
993.104
992.248
991.38
990.504
989.621
988.736
987.85
986.966
986.088
985.219
984.36
983.515
982.687
981.877
981.089
980.323
979.582
978.868
978.18
977.521
976.889
976.288
975.716
975.173
974.659
974.173
973.716
973.286
972.883
972.505
972.154
971.826
971.521
971.239
970.978
970.739
970.519
970.319
970.138
969.975
969.83
969.701
969.589
969.494
969.414
969.35
969.3
969.266
969.246
969.241
969.249
969.272
969.308
969.356
969.419
969.493
969.58
969.679
969.79
969.913
970.046
970.191
970.346
970.511
970.687
970.872
971.066
971.269
971.481
971.701
971.929
972.165
972.409
972.66
972.917
973.182
973.452
973.729
974.011
974.298
974.59
974.887
975.188
975.492
975.8
976.11
976.422
976.735
977.049
977.364
977.677
977.99
978.301
978.609
978.915
979.216
979.513
979.804
980.089
980.368
980.639
980.901
981.156
981.4
981.635
981.86
982.073
982.276
982.466
982.645
982.811
982.965
983.106
983.234
983.349
983.451
983.54
983.617
983.68
983.732
983.77
983.796
983.809
983.81
983.799
983.775
983.739
983.689
983.626
983.55
983.459
983.353
983.23
983.091
982.934
982.758
982.562
982.346
982.109
981.85
981.569
981.267
980.945
980.603
980.244
979.868
979.479
979.079
978.672
978.261
977.85
977.443
977.044
976.658
976.287
975.937
975.61
975.31
975.04
974.802
974.599
974.433
974.303
974.212
974.16
974.146
974.17
974.231
974.327
974.456
974.618
974.809
975.026
975.268
975.53
975.811
976.107
976.414
976.731
977.053
977.379
977.705
978.028
978.347
978.659
978.962
979.255
979.535
979.801
980.053
980.289
980.509
980.713
980.9
981.07
981.225
981.363
981.487
981.597
981.694
981.78
981.855
981.922
981.98
982.032
982.079
982.121
982.161
982.198
982.233
982.268
982.302
982.335
982.369
982.402
982.435
982.466
982.497
982.523
982.547
982.569
982.582
982.585
982.588
982.584
982.554
982.519
982.5
982.442
982.344
982.307
982.267
982.127
982.05
982.07
982.014
981.975
982.073
982.201
982.417
982.749
1015.82
1015.77
1015.7
1015.67
1015.49
1015.3
1015.17
1014.93
1014.71
1014.53
1014.29
1014.04
1013.84
1013.62
1013.38
1013.15
1012.94
1012.71
1012.48
1012.25
1012.03
1011.79
1011.56
1011.32
1011.07
1010.82
1010.56
1010.3
1010.02
1009.74
1009.45
1009.14
1008.82
1008.5
1008.15
1007.79
1007.42
1007.03
1006.63
1006.2
1005.76
1005.29
1004.81
1004.3
1003.77
1003.22
1002.64
1002.05
1001.42
1000.77
1000.1
999.399
998.675
997.928
997.157
996.364
995.55
994.716
993.863
992.995
992.113
991.219
990.317
989.408
988.496
987.585
986.677
985.776
984.884
984.005
983.141
982.295
981.471
980.67
979.894
979.145
978.425
977.733
977.072
976.441
975.842
975.274
974.735
974.227
973.75
973.301
972.88
972.486
972.118
971.776
971.459
971.164
970.892
970.641
970.411
970.2
970.009
969.836
969.68
969.542
969.421
969.316
969.226
969.153
969.094
969.051
969.022
969.008
969.008
969.023
969.052
969.094
969.15
969.219
969.302
969.397
969.504
969.624
969.756
969.9
970.055
970.221
970.397
970.584
970.781
970.987
971.202
971.427
971.659
971.9
972.148
972.404
972.666
972.936
973.211
973.492
973.779
974.071
974.367
974.668
974.973
975.281
975.592
975.906
976.221
976.537
976.855
977.172
977.489
977.805
978.119
978.43
978.739
979.044
979.345
979.64
979.93
980.213
980.489
980.757
981.017
981.268
981.51
981.742
981.963
982.173
982.372
982.559
982.734
982.897
983.048
983.186
983.312
983.425
983.525
983.612
983.687
983.749
983.799
983.836
983.861
983.873
983.873
983.861
983.837
983.799
983.748
983.685
983.607
983.514
983.406
983.282
983.14
982.98
982.802
982.603
982.383
982.141
981.877
981.591
981.283
980.954
980.605
980.237
979.853
979.454
979.045
978.628
978.207
977.786
977.369
976.96
976.564
976.185
975.826
975.492
975.185
974.91
974.667
974.461
974.291
974.16
974.069
974.017
974.004
974.031
974.095
974.195
974.33
974.498
974.695
974.92
975.17
975.441
975.73
976.034
976.351
976.677
977.008
977.343
977.677
978.01
978.337
978.656
978.967
979.266
979.553
979.825
980.082
980.323
980.546
980.753
980.943
981.116
981.272
981.412
981.537
981.648
981.746
981.832
981.909
981.976
982.036
982.09
982.138
982.183
982.226
982.267
982.306
982.346
982.386
982.426
982.467
982.509
982.551
982.592
982.633
982.673
982.71
982.743
982.776
982.799
982.812
982.828
982.838
982.819
982.802
982.807
982.768
982.702
982.705
982.703
982.631
982.63
982.718
982.769
982.862
983.076
983.38
983.776
1015.6
1015.59
1015.55
1015.46
1015.34
1015.25
1015.06
1014.86
1014.72
1014.52
1014.29
1014.1
1013.9
1013.68
1013.47
1013.26
1013.05
1012.83
1012.61
1012.4
1012.17
1011.95
1011.72
1011.49
1011.24
1011
1010.74
1010.48
1010.21
1009.93
1009.64
1009.34
1009.02
1008.69
1008.35
1007.99
1007.62
1007.23
1006.82
1006.39
1005.94
1005.48
1004.99
1004.47
1003.94
1003.37
1002.79
1002.18
1001.54
1000.88
1000.19
999.472
998.729
997.961
997.169
996.352
995.514
994.654
993.775
992.879
991.968
991.045
990.113
989.176
988.235
987.296
986.36
985.432
984.516
983.614
982.729
981.866
981.025
980.21
979.423
978.664
977.938
977.243
976.58
975.95
975.353
974.789
974.257
973.757
973.288
972.848
972.437
972.055
971.698
971.368
971.061
970.778
970.516
970.276
970.056
969.855
969.673
969.508
969.361
969.231
969.116
969.018
968.935
968.867
968.815
968.777
968.754
968.746
968.752
968.773
968.808
968.857
968.92
968.996
969.087
969.191
969.307
969.437
969.579
969.734
969.9
970.078
970.267
970.466
970.676
970.896
971.125
971.363
971.61
971.864
972.126
972.396
972.672
972.955
973.243
973.537
973.836
974.139
974.447
974.758
975.072
975.389
975.708
976.028
976.35
976.672
976.994
977.315
977.634
977.952
978.268
978.58
978.888
979.193
979.492
979.785
980.072
980.353
980.625
980.89
981.145
981.392
981.629
981.855
982.071
982.276
982.47
982.652
982.822
982.981
983.127
983.26
983.382
983.49
983.587
983.671
983.743
983.802
983.85
983.884
983.908
983.919