# vtk DataFile Version 2.0
LBE mesh
ASCII
DATASET STRUCTURED_POINTS
DIMENSIONS 300 100 1
ASPECT_RATIO 1 1 1
ORIGIN 0 0 0
POINT_DATA 30000
SCALARS rho double 1
LOOKUP_TABLE default
1048.91
1017.54
1016.93
1023.45
1021.71
1017.95
1017.87
1018.48
1017.82
1017.13
1017.06
1016.98
1016.68
1016.42
1016.25
1016.04
1015.78
1015.51
1015.22
1014.89
1014.52
1014.11
1013.67
1013.17
1012.64
1012.06
1011.43
1010.76
1010.05
1009.31
1008.52
1007.71
1006.87
1006
1005.12
1004.22
1003.32
1002.41
1001.5
1000.59
999.698
998.816
997.951
997.106
996.284
995.486
994.716
993.974
993.26
992.576
991.922
991.297
990.702
990.138
989.606
989.107
988.645
988.224
987.847
987.519
987.246
987.031
986.878
986.786
986.755
986.778
986.849
986.952
987.073
987.191
987.288
987.341
987.332
987.245
987.067
986.793
986.421
985.954
985.401
984.773
984.085
983.352
982.59
981.817
981.047
980.294
979.572
978.892
978.262
977.69
977.183
976.742
976.371
976.069
975.833
975.662
975.551
975.493
975.484
975.516
975.583
975.678
975.795
975.927
976.071
976.221
976.374
976.526
976.676
976.821
976.96
977.091
977.215
977.331
977.438
977.536
977.627
977.711
977.789
977.861
977.93
977.997
978.064
978.132
978.205
978.284
978.373
978.472
978.585
978.712
978.857
979.02
979.203
979.406
979.63
979.875
980.141
980.426
980.73
981.051
981.389
981.74
982.103
982.477
982.859
983.248
983.641
984.037
984.434
984.832
985.228
985.621
986.012
986.399
986.78
987.157
987.528
987.892
988.249
988.597
988.935
989.262
989.576
989.875
990.158
990.421
990.665
990.886
991.084
991.258
991.408
991.533
991.635
991.714
991.773
991.813
991.837
991.847
991.846
991.836
991.819
991.797
991.771
991.743
991.712
991.68
991.648
991.614
991.58
991.546
991.513
991.482
991.452
991.426
991.403
991.385
991.373
991.368
991.369
991.377
991.393
991.417
991.448
991.487
991.533
991.586
991.646
991.712
991.785
991.863
991.946
992.035
992.128
992.225
992.327
992.432
992.54
992.652
992.766
992.883
993.002
993.122
993.244
993.366
993.487
993.608
993.728
993.845
993.96
994.07
994.176
994.277
994.372
994.461
994.544
994.62
994.69
994.753
994.811
994.863
994.909
994.951
994.987
995.02
995.048
995.073
995.094
995.113
995.128
995.141
995.152
995.161
995.167
995.172
995.175
995.175
995.174
995.17
995.163
995.153
995.139
995.121
995.098
995.068
995.032
994.988
994.936
994.876
994.806
994.727
994.639
994.54
994.432
994.313
994.185
994.046
993.897
993.738
993.567
993.386
993.193
992.985
992.76
992.527
992.272
991.975
991.672
991.37
990.96
990.464
990.121
989.664
988.609
987.875
988.033
986.055
982.108
984.277
985.204
960.531
1031.94
1028.52
1024.55
1019.48
1019.76
1020.03
1018.97
1017.93
1017.8
1017.65
1017.26
1016.95
1016.78
1016.57
1016.32
1016.08
1015.83
1015.56
1015.24
1014.9
1014.53
1014.12
1013.66
1013.16
1012.62
1012.03
1011.4
1010.73
1010.02
1009.27
1008.48
1007.67
1006.83
1005.96
1005.08
1004.18
1003.28
1002.37
1001.46
1000.56
999.669
998.79
997.927
997.085
996.265
995.47
994.702
993.961
993.249
992.567
991.914
991.29
990.696
990.134
989.603
989.107
988.647
988.228
987.855
987.531
987.261
987.05
986.899
986.81
986.78
986.804
986.873
986.973
987.088
987.201
987.288
987.333
987.315
987.219
987.035
986.755
986.379
985.912
985.359
984.734
984.051
983.325
982.571
981.805
981.044
980.3
979.588
978.916
978.295
977.732
977.232
976.798
976.433
976.136
975.905
975.737
975.628
975.572
975.564
975.596
975.662
975.755
975.87
976
976.141
976.288
976.438
976.587
976.734
976.875
977.011
977.14
977.261
977.373
977.477
977.573
977.661
977.742
977.818
977.887
977.954
978.019
978.085
978.152
978.224
978.302
978.39
978.488
978.6
978.728
978.872
979.035
979.218
979.42
979.643
979.887
980.151
980.434
980.737
981.055
981.39
981.738
982.099
982.469
982.847
983.231
983.621
984.012
984.405
984.798
985.19
985.579
985.966
986.348
986.727
987.1
987.468
987.829
988.184
988.529
988.866
989.191
989.503
989.802
990.083
990.347
990.59
990.812
991.01
991.185
991.336
991.463
991.567
991.649
991.711
991.754
991.781
991.795
991.797
991.79
991.777
991.757
991.734
991.708
991.679
991.648
991.616
991.583
991.55
991.516
991.483
991.451
991.422
991.395
991.372
991.354
991.342
991.336
991.337
991.345
991.361
991.384
991.415
991.453
991.499
991.551
991.611
991.677
991.749
991.827
991.91
991.998
992.091
992.188
992.29
992.395
992.503
992.614
992.728
992.844
992.962
993.082
993.202
993.324
993.445
993.565
993.683
993.799
993.912
994.022
994.127
994.226
994.32
994.408
994.49
994.565
994.635
994.698
994.755
994.807
994.853
994.894
994.931
994.963
994.992
995.016
995.037
995.056
995.071
995.084
995.094
995.103
995.109
995.114
995.116
995.116
995.114
995.11
995.104
995.093
995.079
995.061
995.037
995.008
994.972
994.928
994.877
994.816
994.747
994.669
994.581
994.483
994.375
994.257
994.129
993.991
993.842
993.683
993.513
993.331
993.136
992.929
992.705
992.46
992.201
991.924
991.601
991.241
990.891
990.464
989.881
989.345
988.885
987.866
986.538
986.081
984.919
980.634
976.758
974.692
1023.93
1028.8
1024.24
1020.06
1020.41
1020.25
1018.98
1018.15
1018.06
1017.81
1017.38
1017.08
1016.9
1016.67
1016.41
1016.16
1015.9
1015.61
1015.29
1014.94
1014.56
1014.14
1013.67
1013.17
1012.62
1012.03
1011.4
1010.72
1010
1009.25
1008.46
1007.64
1006.8
1005.93
1005.05
1004.15
1003.25
1002.35
1001.44
1000.54
999.654
998.778
997.919
997.08
996.264
995.472
994.707
993.969
993.26
992.579
991.927
991.305
990.712
990.15
989.619
989.122
988.662
988.242
987.868
987.542
987.272
987.059
986.908
986.818
986.788
986.812
986.88
986.979
987.093
987.202
987.286
987.325
987.301
987.199
987.006
986.719
986.337
985.863
985.306
984.678
983.993
983.266
982.514
981.752
980.996
980.258
979.552
978.887
978.274
977.719
977.228
976.803
976.446
976.157
975.934
975.773
975.67
975.619
975.614
975.649
975.717
975.812
975.926
976.056
976.196
976.34
976.488
976.634
976.777
976.915
977.047
977.171
977.288
977.396
977.496
977.587
977.672
977.749
977.821
977.886
977.95
978.011
978.074
978.138
978.208
978.283
978.369
978.466
978.577
978.702
978.846
979.007
979.189
979.39
979.612
979.854
980.117
980.398
980.698
981.014
981.347
981.692
982.049
982.415
982.79
983.171
983.556
983.943
984.332
984.72
985.107
985.492
985.875
986.254
986.63
987
987.365
987.725
988.077
988.422
988.758
989.082
989.395
989.693
989.975
990.239
990.484
990.707
990.907
991.084
991.238
991.367
991.474
991.559
991.624
991.671
991.703
991.72
991.727
991.724
991.714
991.698
991.678
991.654
991.627
991.598
991.567
991.534
991.501
991.467
991.434
991.401
991.371
991.343
991.32
991.3
991.287
991.28
991.28
991.286
991.301
991.323
991.353
991.389
991.434
991.485
991.544
991.609
991.68
991.756
991.839
991.926
992.019
992.115
992.216
992.32
992.427
992.537
992.651
992.766
992.883
993.002
993.121
993.241
993.361
993.479
993.596
993.711
993.823
993.93
994.034
994.132
994.224
994.31
994.391
994.465
994.534
994.596
994.652
994.703
994.749
994.79
994.826
994.859
994.887
994.911
994.933
994.951
994.966
994.978
994.989
994.997
995.003
995.007
995.01
995.01
995.009
995.005
994.998
994.988
994.975
994.957
994.934
994.906
994.871
994.828
994.779
994.72
994.653
994.577
994.491
994.396
994.291
994.175
994.05
993.914
993.768
993.612
993.445
993.266
993.072
992.867
992.649
992.405
992.138
991.87
991.565
991.178
990.807
990.471
989.885
989.15
988.865
988.28
986.311
985.515
986.553
982.182
976.482
980.899
1023.69
1022.51
1022.07
1023.35
1020.96
1018.99
1019.06
1019.09
1018.29
1017.7
1017.56
1017.38
1017.04
1016.75
1016.53
1016.28
1015.99
1015.69
1015.37
1015.01
1014.62
1014.19
1013.72
1013.2
1012.65
1012.05
1011.41
1010.73
1010.01
1009.25
1008.46
1007.64
1006.79
1005.92
1005.04
1004.15
1003.25
1002.34
1001.44
1000.55
999.663
998.792
997.937
997.102
996.29
995.502
994.74
994.005
993.298
992.62
991.97
991.348
990.755
990.192
989.659
989.159
988.695
988.27
987.889
987.558
987.28
987.06
986.902
986.806
986.77
986.789
986.853
986.949
987.059
987.166
987.247
987.283
987.254
987.146
986.947
986.653
986.264
985.783
985.22
984.587
983.899
983.17
982.418
981.657
980.903
980.169
979.468
978.81
978.205
977.658
977.175
976.759
976.411
976.131
975.916
975.764
975.669
975.625
975.627
975.667
975.739
975.836
975.953
976.083
976.222
976.366
976.511
976.654
976.795
976.929
977.056
977.176
977.288
977.391
977.487
977.573
977.654
977.726
977.793
977.854
977.914
977.971
978.03
978.09
978.156
978.229
978.312
978.406
978.515
978.638
978.78
978.939
979.119
979.318
979.538
979.778
980.039
980.318
980.616
980.93
981.259
981.601
981.955
982.318
982.689
983.066
983.447
983.831
984.216
984.6
984.984
985.366
985.746
986.122
986.494
986.862
987.226
987.583
987.935
988.279
988.615
988.939
989.253
989.552
989.835
990.101
990.347
990.572
990.775
990.955
991.111
991.244
991.354
991.443
991.513
991.564
991.6
991.622
991.633
991.635
991.629
991.617
991.601
991.58
991.556
991.528
991.499
991.468
991.435
991.401
991.367
991.333
991.301
991.272
991.247
991.225
991.211
991.201
991.199
991.204
991.216
991.236
991.264
991.298
991.341
991.39
991.447
991.51
991.579
991.654
991.735
991.821
991.912
992.007
992.106
992.209
992.315
992.424
992.536
992.65
992.766
992.883
993.001
993.119
993.238
993.354
993.47
993.582
993.692
993.797
993.899
993.995
994.086
994.17
994.249
994.322
994.389
994.45
994.506
994.556
994.601
994.641
994.677
994.709
994.737
994.761
994.783
994.801
994.816
994.828
994.839
994.847
994.853
994.857
994.86
994.86
994.859
994.856
994.85
994.841
994.829
994.812
994.791
994.765
994.732
994.692
994.645
994.59
994.527
994.454
994.372
994.281
994.18
994.07
993.949
993.819
993.679
993.527
993.364
993.192
993.006
992.803
992.587
992.36
992.105
991.813
991.526
991.216
990.79
990.352
990.027
989.454
988.539
988.135
987.807
985.928
984.397
984.726
984.058
982.42
1023.72
1021.64
1021.66
1021.66
1020.29
1019.99
1019.54
1018.81
1018.31
1018.12
1017.83
1017.46
1017.17
1016.95
1016.69
1016.4
1016.11
1015.81
1015.47
1015.1
1014.7
1014.27
1013.79
1013.27
1012.71
1012.1
1011.45
1010.77
1010.04
1009.28
1008.48
1007.66
1006.81
1005.94
1005.06
1004.17
1003.27
1002.37
1001.48
1000.59
999.705
998.838
997.988
997.158
996.35
995.567
994.809
994.077
993.373
992.696
992.047
991.425
990.83
990.263
989.726
989.219
988.747
988.312
987.92
987.577
987.286
987.054
986.883
986.775
986.728
986.736
986.792
986.88
986.984
987.084
987.16
987.19
987.155
987.039
986.834
986.532
986.135
985.647
985.078
984.44
983.748
983.018
982.265
981.505
980.754
980.025
979.33
978.68
978.082
977.544
977.071
976.665
976.327
976.058
975.854
975.71
975.625
975.589
975.598
975.644
975.721
975.822
975.941
976.072
976.212
976.354
976.498
976.638
976.775
976.905
977.029
977.144
977.251
977.35
977.44
977.522
977.597
977.664
977.727
977.783
977.838
977.891
977.946
978.003
978.066
978.135
978.215
978.306
978.413
978.534
978.674
978.831
979.009
979.206
979.425
979.663
979.922
980.198
980.494
980.805
981.131
981.47
981.821
982.181
982.549
982.922
983.301
983.68
984.063
984.444
984.825
985.203
985.581
985.954
986.325
986.691
987.054
987.41
987.762
988.105
988.441
988.766
989.081
989.381
989.667
989.934
990.183
990.41
990.616
990.799
990.959
991.095
991.21
991.303
991.377
991.433
991.474
991.501
991.518
991.524
991.524
991.516
991.504
991.487
991.466
991.441
991.414
991.383
991.351
991.316
991.282
991.247
991.214
991.182
991.155
991.131
991.114
991.102
991.097
991.099
991.109
991.125
991.151
991.182
991.222
991.269
991.323
991.383
991.451
991.523
991.602
991.685
991.774
991.867
991.965
992.065
992.17
992.277
992.388
992.499
992.614
992.729
992.845
992.961
993.078
993.192
993.306
993.416
993.524
993.627
993.726
993.82
993.908
993.991
994.068
994.139
994.205
994.264
994.318
994.367
994.412
994.451
994.487
994.518
994.546
994.57
994.592
994.609
994.625
994.637
994.648
994.656
994.663
994.667
994.67
994.671
994.67
994.668
994.663
994.655
994.645
994.63
994.612
994.587
994.558
994.522
994.478
994.427
994.369
994.301
994.225
994.14
994.046
993.942
993.828
993.705
993.572
993.43
993.275
993.109
992.934
992.745
992.534
992.313
992.083
991.809
991.503
991.227
990.895
990.404
990.009
989.751
988.981
988.069
988.149
987.52
985.42
985.449
985.961
984.61
1021.69
1021.8
1021.48
1020.11
1020.35
1020.32
1019.27
1018.75
1018.7
1018.38
1017.89
1017.61
1017.43
1017.15
1016.84
1016.56
1016.28
1015.96
1015.6
1015.23
1014.82
1014.37
1013.89
1013.36
1012.79
1012.18
1011.53
1010.83
1010.1
1009.33
1008.54
1007.71
1006.86
1006
1005.12
1004.23
1003.33
1002.44
1001.54
1000.66
999.783
998.922
998.078
997.253
996.451
995.672
994.918
994.19
993.488
992.812
992.162
991.539
990.94
990.367
989.822
989.305
988.82
988.371
987.963
987.602
987.292
987.041
986.85
986.724
986.659
986.652
986.692
986.768
986.861
986.952
987.019
987.04
986.997
986.873
986.658
986.347
985.941
985.444
984.868
984.225
983.529
982.797
982.045
981.288
980.541
979.818
979.13
978.488
977.901
977.373
976.911
976.517
976.191
975.933
975.74
975.608
975.532
975.506
975.523
975.576
975.658
975.763
975.885
976.017
976.157
976.299
976.44
976.577
976.71
976.836
976.955
977.066
977.168
977.262
977.347
977.424
977.495
977.557
977.615
977.668
977.719
977.768
977.819
977.872
977.932
977.999
978.077
978.166
978.27
978.389
978.527
978.683
978.86
979.056
979.273
979.509
979.767
980.042
980.336
980.645
980.969
981.305
981.655
982.011
982.377
982.747
983.123
983.5
983.88
984.259
984.638
985.014
985.39
985.761
986.131
986.495
986.856
987.212
987.563
987.907
988.243
988.569
988.885
989.187
989.474
989.744
989.995
990.225
990.434
990.62
990.783
990.923
991.042
991.14
991.219
991.28
991.327
991.359
991.381
991.393
991.399
991.396
991.389
991.375
991.359
991.336
991.311
991.281
991.25
991.215
991.179
991.143
991.108
991.075
991.045
991.019
990.998
990.983
990.976
990.974
990.981
990.994
991.016
991.044
991.081
991.124
991.176
991.232
991.297
991.366
991.443
991.523
991.61
991.7
991.795
991.893
991.996
992.101
992.209
992.319
992.431
992.543
992.658
992.771
992.886
992.998
993.109
993.217
993.322
993.423
993.52
993.611
993.697
993.777
993.852
993.921
993.984
994.042
994.095
994.142
994.186
994.224
994.26
994.29
994.319
994.342
994.364
994.381
994.397
994.409
994.42
994.428
994.435
994.44
994.443
994.445
994.445
994.444
994.441
994.434
994.426
994.414
994.399
994.378
994.352
994.32
994.281
994.235
994.183
994.121
994.052
993.974
993.888
993.792
993.688
993.574
993.451
993.318
993.177
993.022
992.856
992.681
992.492
992.276
992.052
991.829
991.55
991.224
990.963
990.659
990.128
989.722
989.582
988.878
987.946
987.999
987.873
986.869
986.512
987.208
1020.7
1021.18
1020.8
1020.26
1020.19
1019.56
1019.31
1019.18
1018.73
1018.31
1018.11
1017.91
1017.58
1017.28
1017.03
1016.76
1016.45
1016.11
1015.76
1015.38
1014.96
1014.51
1014.01
1013.48
1012.9
1012.29
1011.63
1010.93
1010.19
1009.43
1008.63
1007.8
1006.95
1006.09
1005.21
1004.32
1003.43
1002.54
1001.65
1000.77
999.903
999.049
998.211
997.393
996.596
995.822
995.072
994.347
993.647
992.972
992.32
991.693
991.088
990.507
989.949
989.418
988.916
988.448
988.018
987.633
987.299
987.022
986.806
986.654
986.566
986.536
986.557
986.614
986.692
986.768
986.822
986.831
986.776
986.641
986.415
986.093
985.676
985.171
984.588
983.939
983.239
982.507
981.755
981.003
980.262
979.546
978.868
978.237
977.661
977.146
976.697
976.316
976.003
975.758
975.577
975.456
975.39
975.373
975.398
975.458
975.546
975.655
975.779
975.913
976.052
976.192
976.33
976.465
976.593
976.715
976.829
976.934
977.032
977.12
977.201
977.274
977.339
977.398
977.452
977.501
977.549
977.595
977.643
977.695
977.752
977.818
977.894
977.982
978.086
978.205
978.342
978.498
978.674
978.87
979.087
979.323
979.581
979.855
980.148
980.456
980.779
981.114
981.462
981.818
982.182
982.551
982.925
983.3
983.679
984.055
984.433
984.807
985.181
985.551
985.919
986.282
986.643
986.997
987.348
987.691
988.028
988.355
988.672
988.974
989.264
989.535
989.789
990.021
990.233
990.422
990.589
990.732
990.855
990.957
991.041
991.107
991.159
991.198
991.226
991.244
991.255
991.258
991.256
991.247
991.234
991.214
991.192
991.163
991.132
991.097
991.061
991.023
990.987
990.951
990.919
990.889
990.866
990.848
990.837
990.831
990.835
990.844
990.863
990.887
990.921
990.96
991.008
991.061
991.122
991.188
991.261
991.338
991.422
991.509
991.602
991.697
991.797
991.899
992.005
992.112
992.222
992.332
992.444
992.555
992.667
992.776
992.885
992.99
993.093
993.19
993.285
993.373
993.457
993.534
993.606
993.672
993.734
993.789
993.841
993.887
993.929
993.967
994.002
994.032
994.059
994.083
994.104
994.121
994.137
994.149
994.16
994.168
994.176
994.18
994.185
994.187
994.188
994.188
994.187
994.183
994.177
994.167
994.155
994.138
994.117
994.089
994.057
994.017
993.971
993.916
993.855
993.785
993.708
993.622
993.529
993.426
993.316
993.195
993.066
992.928
992.777
992.613
992.444
992.258
992.042
991.828
991.617
991.33
991.014
990.807
990.501
989.961
989.718
989.628
988.909
988.429
988.664
988.345
988.14
988.842
1020.49
1020.28
1020.15
1020.38
1019.86
1019.39
1019.41
1019.1
1018.7
1018.51
1018.31
1018
1017.72
1017.49
1017.23
1016.93
1016.61
1016.3
1015.94
1015.54
1015.12
1014.66
1014.16
1013.62
1013.04
1012.42
1011.76
1011.05
1010.32
1009.55
1008.75
1007.92
1007.08
1006.21
1005.34
1004.46
1003.57
1002.68
1001.8
1000.93
1000.07
999.221
998.39
997.578
996.788
996.019
995.274
994.552
993.854
993.177
992.523
991.89
991.276
990.683
990.11
989.561
989.037
988.544
988.087
987.672
987.307
986.998
986.75
986.567
986.448
986.39
986.384
986.418
986.474
986.532
986.568
986.562
986.492
986.343
986.103
985.769
985.342
984.827
984.236
983.582
982.88
982.147
981.399
980.652
979.919
979.214
978.547
977.929
977.367
976.866
976.432
976.065
975.766
975.534
975.365
975.256
975.2
975.192
975.225
975.291
975.384
975.496
975.622
975.756
975.894
976.031
976.166
976.296
976.42
976.536
976.644
976.745
976.837
976.92
976.997
977.065
977.126
977.182
977.233
977.28
977.325
977.37
977.417
977.467
977.525
977.591
977.667
977.756
977.861
977.982
978.12
978.278
978.456
978.653
978.872
979.11
979.368
979.643
979.937
980.246
980.57
980.906
981.254
981.609
981.974
982.342
982.716
983.091
983.468
983.844
984.22
984.594
984.966
985.334
985.701
986.062
986.422
986.776
987.125
987.468
987.805
988.131
988.448
988.752
989.043
989.315
989.571
989.805
990.019
990.21
990.38
990.526
990.653
990.759
990.848
990.919
990.976
991.02
991.055
991.079
991.096
991.105
991.108
991.103
991.094
991.078
991.058
991.031
991.001
990.966
990.929
990.89
990.852
990.813
990.779
990.746
990.72
990.698
990.684
990.674
990.674
990.68
990.695
990.715
990.745
990.78
990.824
990.873
990.931
990.993
991.062
991.136
991.216
991.3
991.389
991.482
991.579
991.678
991.781
991.885
991.993
992.1
992.209
992.318
992.427
992.533
992.639
992.741
992.841
992.935
993.027
993.112
993.193
993.267
993.337
993.4
993.459
993.512
993.562
993.606
993.648
993.684
993.718
993.747
993.774
993.797
993.818
993.835
993.85
993.862
993.873
993.881
993.889
993.894
993.899
993.901
993.904
993.905
993.906
993.904
993.901
993.894
993.886
993.872
993.856
993.833
993.807
993.773
993.734
993.688
993.635
993.574
993.507
993.432
993.351
993.26
993.164
993.058
992.943
992.82
992.69
992.545
992.388
992.23
992.056
991.843
991.645
991.464
991.186
990.882
990.745
990.494
990.001
989.841
989.875
989.468
989.192
989.463
989.75
989.982
1020.1
1019.99
1019.97
1019.88
1019.6
1019.57
1019.28
1018.95
1018.85
1018.65
1018.34
1018.11
1017.92
1017.67
1017.37
1017.09
1016.81
1016.47
1016.1
1015.71
1015.29
1014.82
1014.32
1013.78
1013.19
1012.57
1011.9
1011.2
1010.47
1009.7
1008.9
1008.08
1007.23
1006.38
1005.51
1004.63
1003.75
1002.87
1002
1001.13
1000.28
999.44
998.617
997.813
997.029
996.266
995.526
994.807
994.109
993.431
992.772
992.13
991.505
990.897
990.305
989.733
989.182
988.659
988.169
987.719
987.316
986.969
986.683
986.462
986.307
986.214
986.177
986.182
986.211
986.245
986.261
986.235
986.147
985.981
985.727
985.378
984.938
984.414
983.815
983.156
982.453
981.723
980.98
980.24
979.518
978.825
978.173
977.57
977.024
976.541
976.122
975.771
975.486
975.268
975.111
975.013
974.967
974.967
975.007
975.078
975.174
975.288
975.414
975.547
975.682
975.816
975.946
976.07
976.188
976.298
976.401
976.495
976.581
976.66
976.731
976.796
976.854
976.907
976.955
977.001
977.045
977.09
977.137
977.189
977.248
977.316
977.396
977.489
977.597
977.721
977.865
978.026
978.208
978.41
978.633
978.875
979.136
979.415
979.712
980.024
980.351
980.689
981.038
981.396
981.762
982.132
982.506
982.882
983.259
983.635
984.011
984.383
984.755
985.121
985.486
985.846
986.204
986.556
986.904
987.245
987.581
987.906
988.223
988.527
988.817
989.09
989.347
989.582
989.797
989.99
990.162
990.311
990.441
990.55
990.643
990.719
990.782
990.832
990.872
990.901
990.925
990.939
990.947
990.948
990.943
990.93
990.912
990.887
990.858
990.823
990.786
990.746
990.706
990.665
990.628
990.593
990.564
990.538
990.52
990.507
990.503
990.505
990.516
990.532
990.558
990.589
990.628
990.673
990.727
990.785
990.851
990.921
990.997
991.077
991.163
991.252
991.346
991.442
991.542
991.643
991.748
991.853
991.959
992.065
992.171
992.275
992.378
992.476
992.573
992.664
992.752
992.834
992.911
992.982
993.049
993.11
993.167
993.217
993.265
993.307
993.347
993.382
993.414
993.443
993.469
993.491
993.511
993.527
993.543
993.554
993.565
993.573
993.58
993.585
993.591
993.594
993.598
993.6
993.602
993.602
993.601
993.598
993.593
993.583
993.572
993.555
993.534
993.507
993.476
993.437
993.394
993.343
993.287
993.223
993.155
993.077
992.995
992.905
992.808
992.7
992.588
992.47
992.335
992.189
992.051
991.89
991.691
991.526
991.38
991.117
990.882
990.818
990.601
990.271
990.273
990.298
990.17
990.323
990.629
991.11
1019.66
1019.78
1019.78
1019.55
1019.55
1019.48
1019.18
1019.05
1018.91
1018.65
1018.45
1018.28
1018.04
1017.78
1017.54
1017.28
1016.97
1016.63
1016.28
1015.89
1015.46
1014.99
1014.49
1013.94
1013.36
1012.73
1012.07
1011.37
1010.64
1009.87
1009.08
1008.26
1007.43
1006.57
1005.71
1004.84
1003.97
1003.1
1002.24
1001.38
1000.54
999.706
998.892
998.096
997.32
996.563
995.827
995.111
994.412
993.731
993.066
992.414
991.775
991.148
990.533
989.933
989.351
988.792
988.263
987.772
987.326
986.935
986.605
986.34
986.143
986.011
985.936
985.907
985.906
985.912
985.902
985.853
985.745
985.56
985.288
984.924
984.471
983.935
983.329
982.667
981.964
981.236
980.501
979.772
979.063
978.385
977.751
977.166
976.639
976.174
975.773
975.438
975.169
974.964
974.82
974.733
974.696
974.703
974.748
974.823
974.921
975.035
975.16
975.29
975.421
975.549
975.673
975.791
975.901
976.004
976.099
976.186
976.267
976.34
976.406
976.467
976.522
976.572
976.619
976.665
976.71
976.756
976.805
976.861
976.924
976.997
977.083
977.182
977.296
977.428
977.578
977.748
977.937
978.146
978.376
978.625
978.893
979.178
979.48
979.798
980.13
980.473
980.826
981.188
981.557
981.93
982.307
982.684
983.063
983.439
983.815
984.187
984.557
984.922
985.285
985.643
985.998
986.347
986.693
987.032
987.365
987.689
988.004
988.306
988.596
988.868
989.124
989.359
989.575
989.768
989.941
990.092
990.224
990.337
990.433
990.513
990.581
990.635
990.681
990.716
990.745
990.765
990.779
990.784
990.783
990.773
990.758
990.735
990.707
990.672
990.635
990.594
990.553
990.51
990.47
990.433
990.401
990.372
990.35
990.334
990.326
990.324
990.33
990.342
990.363
990.39
990.425
990.466
990.515
990.569
990.631
990.698
990.77
990.847
990.929
991.014
991.105
991.198
991.295
991.393
991.495
991.596
991.7
991.803
991.906
992.007
992.106
992.202
992.295
992.383
992.467
992.546
992.62
992.687
992.751
992.808
992.862
992.91
992.955
992.995
993.033
993.066
993.097
993.124
993.149
993.17
993.189
993.204
993.219
993.229
993.24
993.247
993.254
993.259
993.265
993.268
993.273
993.276
993.28
993.281
993.283
993.282
993.281
993.275
993.268
993.256
993.241
993.221
993.197
993.167
993.132
993.091
993.046
992.995
992.939
992.876
992.808
992.733
992.655
992.568
992.473
992.373
992.272
992.149
992.021
991.909
991.772
991.591
991.473
991.373
991.153
990.99
991.002
990.891
990.725
990.821
991.018
991.132
991.386
992.036
1019.45
1019.54
1019.53
1019.5
1019.47
1019.28
1019.21
1019.12
1018.89
1018.72
1018.59
1018.38
1018.15
1017.94
1017.7
1017.42
1017.12
1016.8
1016.45
1016.05
1015.62
1015.16
1014.66
1014.11
1013.53
1012.91
1012.25
1011.56
1010.83
1010.07
1009.28
1008.47
1007.65
1006.8
1005.95
1005.09
1004.23
1003.37
1002.52
1001.67
1000.84
1000.02
999.215
998.428
997.659
996.909
996.177
995.463
994.763
994.078
993.404
992.739
992.083
991.433
990.791
990.159
989.54
988.941
988.367
987.83
987.335
986.894
986.514
986.201
985.957
985.78
985.663
985.596
985.56
985.534
985.496
985.422
985.29
985.083
984.792
984.412
983.944
983.398
982.785
982.119
981.417
980.695
979.969
979.253
978.56
977.901
977.287
976.724
976.217
975.773
975.391
975.075
974.822
974.631
974.499
974.421
974.392
974.405
974.454
974.531
974.629
974.743
974.865
974.99
975.115
975.237
975.353
975.462
975.564
975.658
975.744
975.824
975.897
975.964
976.025
976.081
976.133
976.182
976.228
976.274
976.321
976.37
976.424
976.485
976.555
976.636
976.729
976.838
976.962
977.105
977.266
977.446
977.646
977.867
978.107
978.366
978.644
978.939
979.25
979.576
979.915
980.266
980.626
980.994
981.368
981.746
982.127
982.508
982.889
983.267
983.643
984.014
984.383
984.747
985.107
985.461
985.813
986.159
986.501
986.836
987.166
987.487
987.799
988.098
988.385
988.655
988.909
989.143
989.358
989.551
989.724
989.876
990.009
990.124
990.223
990.306
990.378
990.437
990.487
990.528
990.562
990.587
990.606
990.615
990.618
990.612
990.599
990.579
990.552
990.517
990.48
990.438
990.396
990.351
990.309
990.269
990.234
990.202
990.177
990.158
990.146
990.14
990.142
990.15
990.166
990.189
990.22
990.257
990.301
990.351
990.409
990.471
990.54
990.613
990.692
990.774
990.861
990.951
991.045
991.14
991.239
991.337
991.438
991.538
991.638
991.735
991.832
991.924
992.013
992.097
992.178
992.252
992.323
992.387
992.447
992.5
992.551
992.596
992.638
992.676
992.711
992.742
992.771
992.796
992.82
992.839
992.857
992.872
992.885
992.894
992.903
992.909
992.916
992.92
992.925
992.929
992.934
992.937
992.942
992.945
992.949
992.951
992.952
992.95
992.947
992.94
992.931
992.916
992.9
992.877
992.852
992.82
992.786
992.747
992.704
992.655
992.603
992.544
992.482
992.415
992.343
992.26
992.18
992.097
991.993
991.888
991.81
991.697
991.557
991.493
991.437
991.289
991.234
991.293
991.29
991.329
991.531
991.792
992.124
992.709
1019.33
1019.36
1019.38
1019.44
1019.36
1019.26
1019.23
1019.08
1018.94
1018.84
1018.66
1018.46
1018.29
1018.08
1017.83
1017.56
1017.28
1016.96
1016.6
1016.22
1015.8
1015.33
1014.83
1014.29
1013.72
1013.1
1012.44
1011.76
1011.04
1010.29
1009.51
1008.71
1007.9
1007.07
1006.23
1005.38
1004.53
1003.68
1002.84
1002.01
1001.19
1000.38
999.584
998.806
998.046
997.302
996.574
995.86
995.159
994.467
993.783
993.102
992.425
991.749
991.075
990.407
989.746
989.1
988.478
987.888
987.34
986.844
986.41
986.043
985.747
985.521
985.359
985.249
985.175
985.115
985.046
984.943
984.786
984.557
984.245
983.847
983.365
982.807
982.187
981.518
980.818
980.103
979.388
978.688
978.014
977.377
976.786
976.247
975.765
975.343
974.983
974.686
974.45
974.273
974.153
974.084
974.062
974.079
974.131
974.209
974.305
974.416
974.533
974.653
974.771
974.884
974.99
975.09
975.181
975.266
975.342
975.413
975.478
975.538
975.593
975.645
975.694
975.741
975.787
975.834
975.884
975.937
975.998
976.066
976.145
976.236
976.341
976.462
976.6
976.757
976.932
977.127
977.342
977.577
977.832
978.105
978.396
978.704
979.028
979.365
979.715
980.076
980.445
980.822
981.204
981.588
981.974
982.36
982.744
983.125
983.502
983.873
984.241
984.602
984.959
985.31
985.657
985.999
986.336
986.666
986.991
987.307
987.614
987.909
988.192
988.459
988.709
988.941
989.153
989.345
989.517
989.668
989.802
989.917
990.018
990.104
990.179
990.242
990.297
990.342
990.381
990.41
990.433
990.447
990.454
990.451
990.441
990.421
990.395
990.362
990.324
990.282
990.238
990.192
990.148
990.106
990.068
990.034
990.006
989.982
989.966
989.957
989.954
989.958
989.971
989.99
990.017
990.049
990.089
990.136
990.189
990.247
990.313
990.382
990.457
990.536
990.62
990.707
990.798
990.89
990.986
991.082
991.179
991.276
991.373
991.467
991.56
991.648
991.734
991.814
991.891
991.961
992.027
992.087
992.143
992.192
992.239
992.281
992.32
992.354
992.387
992.415
992.443
992.465
992.487
992.504
992.521
992.533
992.545
992.553
992.56
992.565
992.57
992.573
992.578
992.581
992.586
992.589
992.594
992.598
992.603
992.607
992.611
992.612
992.612
992.609
992.605
992.596
992.586
992.571
992.554
992.531
992.508
992.479
992.449
992.413
992.376
992.334
992.289
992.238
992.189
992.131
992.067
992.007
991.949
991.865
991.793
991.752
991.675
991.583
991.578
991.576
991.52
991.554
991.694
991.81
991.978
992.293
992.667
993.218
1019.21
1019.28
1019.33
1019.33
1019.3
1019.3
1019.21
1019.1
1019.03
1018.9
1018.73
1018.59
1018.41
1018.19
1017.96
1017.71
1017.43
1017.11
1016.76
1016.38
1015.96
1015.5
1015.01
1014.48
1013.91
1013.3
1012.65
1011.97
1011.26
1010.52
1009.76
1008.98
1008.17
1007.36
1006.53
1005.7
1004.87
1004.03
1003.21
1002.39
1001.58
1000.78
999.996
999.228
998.476
997.738
997.014
996.3
995.595
994.895
994.197
993.499
992.797
992.091
991.381
990.671
989.964
989.268
988.591
987.944
987.337
986.782
986.288
985.863
985.512
985.234
985.023
984.868
984.753
984.656
984.554
984.422
984.237
983.984
983.651
983.234
982.737
982.168
981.541
980.87
980.173
979.467
978.766
978.083
977.431
976.819
976.254
975.742
975.286
974.89
974.553
974.276
974.058
973.896
973.787
973.727
973.71
973.732
973.784
973.861
973.955
974.061
974.172
974.284
974.393
974.497
974.593
974.681
974.762
974.835
974.901
974.962
975.018
975.07
975.119
975.166
975.211
975.256
975.302
975.352
975.405
975.464
975.532
975.61
975.699
975.803
975.923
976.06
976.214
976.388
976.582
976.796
977.029
977.283
977.555
977.846
978.154
978.479
978.818
979.17
979.534
979.908
980.29
980.678
981.069
981.463
981.856
982.248
982.637
983.021
983.399
983.771
984.137
984.496
984.849
985.196
985.538
985.873
986.204
986.528
986.846
987.156
987.457
987.746
988.023
988.285
988.53
988.758
988.967
989.155
989.324
989.474
989.607
989.722
989.824
989.912
989.989
990.056