# vtk DataFile Version 2.0
LBE mesh
ASCII
DATASET STRUCTURED_POINTS
DIMENSIONS 300 100 1
ASPECT_RATIO 1 1 1
ORIGIN 0 0 0
POINT_DATA 30000
SCALARS rho double 1
LOOKUP_TABLE default
1045.37
1013.49
1012.76
1019.28
1017.44
1013.51
1013.3
1013.82
1013.04
1012.24
1012.07
1011.9
1011.53
1011.21
1011.01
1010.8
1010.55
1010.32
1010.12
1009.9
1009.68
1009.47
1009.25
1009.03
1008.81
1008.58
1008.34
1008.1
1007.86
1007.6
1007.34
1007.06
1006.78
1006.49
1006.18
1005.86
1005.53
1005.19
1004.83
1004.46
1004.08
1003.67
1003.26
1002.82
1002.37
1001.9
1001.42
1000.91
1000.39
999.855
999.3
998.727
998.136
997.529
996.906
996.268
995.615
994.948
994.268
993.577
992.875
992.164
991.447
990.723
989.995
989.266
988.535
987.806
987.08
986.36
985.647
984.942
984.248
983.566
982.897
982.244
981.608
980.988
980.388
979.807
979.246
978.705
978.187
977.689
977.214
976.76
976.328
975.918
975.528
975.16
974.812
974.485
974.177
973.889
973.619
973.366
973.132
972.914
972.712
972.526
972.354
972.197
972.054
971.924
971.807
971.702
971.609
971.527
971.456
971.395
971.344
971.303
971.271
971.248
971.233
971.227
971.228
971.237
971.254
971.277
971.307
971.343
971.386
971.434
971.489
971.549
971.614
971.685
971.76
971.84
971.925
972.014
972.108
972.206
972.309
972.416
972.527
972.642
972.762
972.887
973.016
973.151
973.29
973.434
973.584
973.74
973.902
974.07
974.245
974.428
974.618
974.816
975.021
975.236
975.46
975.692
975.934
976.185
976.446
976.716
976.996
977.285
977.584
977.891
978.207
978.532
978.864
979.203
979.547
979.898
980.253
980.612
980.973
981.336
981.7
982.064
982.426
982.787
983.144
983.496
983.843
984.184
984.518
984.844
985.16
985.466
985.762
986.047
986.32
986.58
986.828
987.061
987.281
987.487
987.679
987.856
988.019
988.166
988.299
988.416
988.519
988.606
988.679
988.736
988.778
988.805
988.817
988.812
988.793
988.758
988.706
988.637
988.551
988.448
988.326
988.187
988.028
987.85
987.653
987.436
987.199
986.943
986.667
986.373
986.059
985.728
985.38
985.016
984.637
984.245
983.841
983.428
983.008
982.583
982.154
981.724
981.297
980.874
980.459
980.053
979.66
979.281
978.92
978.579
978.258
977.96
977.688
977.441
977.222
977.03
976.866
976.73
976.623
976.544
976.491
976.464
976.462
976.482
976.524
976.585
976.662
976.754
976.858
976.971
977.09
977.214
977.338
977.461
977.58
977.693
977.796
977.888
977.967
978.03
978.075
978.101
978.107
978.091
978.05
977.986
977.897
977.778
977.631
977.463
977.26
977.007
976.74
976.466
976.079
975.612
975.291
974.851
973.847
973.176
973.347
971.462
967.799
969.984
970.918
947.736
1028.17
1024.59
1020.48
1015.25
1015.43
1015.6
1014.41
1013.24
1013
1012.75
1012.27
1011.87
1011.63
1011.37
1011.09
1010.84
1010.61
1010.39
1010.16
1009.94
1009.72
1009.5
1009.27
1009.05
1008.82
1008.59
1008.35
1008.11
1007.86
1007.6
1007.33
1007.05
1006.77
1006.47
1006.16
1005.84
1005.51
1005.17
1004.81
1004.43
1004.04
1003.64
1003.22
1002.78
1002.33
1001.86
1001.38
1000.87
1000.35
999.811
999.254
998.68
998.089
997.482
996.859
996.221
995.568
994.901
994.222
993.532
992.832
992.123
991.407
990.685
989.96
989.232
988.504
987.778
987.056
986.338
985.628
984.927
984.236
983.557
982.892
982.242
981.609
980.993
980.396
979.818
979.26
978.722
978.206
977.712
977.239
976.787
976.357
975.949
975.562
975.195
974.849
974.523
974.217
973.93
973.661
973.409
973.176
972.958
972.757
972.572
972.401
972.244
972.102
971.972
971.855
971.75
971.657
971.575
971.504
971.444
971.393
971.352
971.32
971.297
971.283
971.276
971.277
971.286
971.303
971.326
971.356
971.392
971.435
971.483
971.537
971.596
971.662
971.732
971.807
971.886
971.97
972.059
972.152
972.25
972.352
972.458
972.569
972.683
972.803
972.926
973.054
973.188
973.326
973.47
973.619
973.774
973.934
974.101
974.275
974.456
974.645
974.841
975.046
975.259
975.481
975.712
975.952
976.202
976.461
976.729
977.008
977.295
977.592
977.897
978.212
978.534
978.864
979.201
979.544
979.893
980.246
980.603
980.963
981.325
981.688
982.05
982.411
982.77
983.126
983.478
983.824
984.164
984.498
984.823
985.139
985.445
985.741
986.025
986.298
986.558
986.806
987.04
987.26
987.467
987.658
987.836
987.999
988.147
988.28
988.397
988.5
988.588
988.661
988.719
988.761
988.788
988.8
988.797
988.778
988.743
988.692
988.624
988.539
988.437
988.317
988.179
988.022
987.846
987.651
987.437
987.203
986.949
986.676
986.384
986.074
985.745
985.399
985.038
984.662
984.272
983.871
983.46
983.042
982.618
982.19
981.762
981.335
980.912
980.497
980.09
979.696
979.316
978.953
978.61
978.287
977.987
977.711
977.461
977.238
977.043
976.875
976.736
976.625
976.542
976.485
976.454
976.448
976.465
976.503
976.56
976.634
976.723
976.824
976.934
977.051
977.172
977.294
977.416
977.533
977.644
977.747
977.838
977.915
977.978
978.023
978.048
978.054
978.037
977.997
977.931
977.84
977.723
977.576
977.396
977.192
976.958
976.671
976.343
976.018
975.614
975.062
974.556
974.121
973.164
971.93
971.513
970.478
966.502
962.912
961.085
1020.02
1024.85
1020.16
1015.83
1016.07
1015.79
1014.4
1013.45
1013.25
1012.9
1012.37
1011.99
1011.74
1011.46
1011.17
1010.91
1010.68
1010.44
1010.21
1009.98
1009.76
1009.53
1009.31
1009.08
1008.85
1008.61
1008.37
1008.12
1007.87
1007.61
1007.34
1007.06
1006.77
1006.47
1006.16
1005.84
1005.5
1005.16
1004.8
1004.42
1004.03
1003.62
1003.2
1002.77
1002.31
1001.84
1001.35
1000.85
1000.32
999.781
999.223
998.648
998.056
997.447
996.823
996.183
995.529
994.862
994.183
993.492
992.791
992.081
991.365
990.643
989.918
989.191
988.464
987.738
987.017
986.3
985.592
984.892
984.203
983.526
982.863
982.215
981.584
980.971
980.376
979.801
979.246
978.711
978.198
977.706
977.236
976.787
976.36
975.954
975.569
975.205
974.861
974.538
974.233
973.947
973.68
973.431
973.198
972.983
972.783
972.598
972.428
972.273
972.131
972.002
971.886
971.782
971.689
971.608
971.538
971.478
971.428
971.387
971.355
971.333
971.318
971.312
971.314
971.323
971.339
971.363
971.393
971.429
971.472
971.52
971.574
971.634
971.699
971.768
971.843
971.922
972.006
972.095
972.188
972.285
972.386
972.492
972.601
972.715
972.834
972.956
973.084
973.216
973.353
973.496
973.643
973.797
973.956
974.122
974.295
974.474
974.661
974.856
975.059
975.271
975.491
975.72
975.958
976.206
976.464
976.73
977.007
977.293
977.588
977.893
978.205
978.526
978.855
979.191
979.533
979.881
980.233
980.59
980.949
981.31
981.672
982.034
982.395
982.755
983.11
983.462
983.808
984.149
984.482
984.807
985.124
985.431
985.727
986.012
986.286
986.546
986.794
987.029
987.25
987.457
987.649
987.827
987.99
988.139
988.272
988.39
988.494
988.582
988.655
988.713
988.756
988.784
988.796
988.793
988.775
988.741
988.691
988.624
988.541
988.44
988.322
988.186
988.031
987.858
987.666
987.454
987.222
986.971
986.7
986.411
986.102
985.776
985.432
985.072
984.697
984.308
983.908
983.497
983.078
982.653
982.224
981.794
981.365
980.941
980.522
980.113
979.716
979.333
978.966
978.619
978.291
977.988
977.708
977.454
977.227
977.028
976.857
976.714
976.6
976.513
976.454
976.42
976.412
976.427
976.463
976.519
976.592
976.679
976.779
976.889
977.006
977.128
977.25
977.372
977.491
977.602
977.706
977.798
977.877
977.94
977.987
978.014
978.02
978.004
977.965
977.901
977.808
977.691
977.549
977.368
977.154
976.928
976.656
976.3
975.956
975.637
975.075
974.383
974.119
973.555
971.709
970.994
971.985
967.907
962.611
966.873
1019.74
1018.47
1017.93
1019.12
1016.6
1014.49
1014.45
1014.37
1013.46
1012.75
1012.52
1012.26
1011.85
1011.52
1011.28
1011.03
1010.76
1010.51
1010.28
1010.05
1009.82
1009.59
1009.36
1009.13
1008.89
1008.65
1008.41
1008.16
1007.9
1007.64
1007.36
1007.08
1006.79
1006.49
1006.18
1005.86
1005.52
1005.17
1004.81
1004.43
1004.04
1003.63
1003.2
1002.77
1002.31
1001.84
1001.34
1000.84
1000.31
999.767
999.206
998.628
998.033
997.422
996.795
996.152
995.495
994.825
994.143
993.449
992.745
992.033
991.314
990.59
989.862
989.133
988.404
987.677
986.954
986.237
985.528
984.828
984.139
983.463
982.801
982.154
981.525
980.913
980.321
979.748
979.195
978.663
978.153
977.664
977.197
976.752
976.328
975.925
975.544
975.183
974.842
974.521
974.219
973.936
973.672
973.425
973.195
972.981
972.783
972.6
972.432
972.278
972.138
972.01
971.896
971.792
971.701
971.621
971.551
971.492
971.443
971.403
971.372
971.35
971.336
971.33
971.333
971.342
971.359
971.383
971.414
971.45
971.493
971.542
971.596
971.656
971.721
971.791
971.866
971.945
972.029
972.117
972.21
972.307
972.408
972.513
972.622
972.735
972.853
972.975
973.101
973.233
973.369
973.51
973.656
973.809
973.967
974.131
974.302
974.48
974.666
974.859
975.06
975.27
975.489
975.716
975.953
976.2
976.455
976.721
976.996
977.281
977.575
977.878
978.19
978.511
978.839
979.174
979.516
979.864
980.216
980.573
980.932
981.293
981.656
982.019
982.38
982.741
983.097
983.45
983.797
984.138
984.473
984.799
985.116
985.424
985.721
986.007
986.282
986.544
986.792
987.028
987.25
987.458
987.651
987.829
987.993
988.142
988.276
988.394
988.498
988.586
988.66
988.718
988.762
988.79
988.804
988.802
988.784
988.751
988.703
988.638
988.556
988.457
988.341
988.207
988.055
987.884
987.695
987.485
987.256
987.007
986.738
986.45
986.143
985.818
985.475
985.115
984.739
984.35
983.948
983.535
983.114
982.685
982.253
981.819
981.386
980.957
980.534
980.119
979.717
979.328
978.956
978.603
978.271
977.962
977.678
977.42
977.188
976.985
976.811
976.665
976.548
976.459
976.398
976.363
976.354
976.369
976.405
976.461
976.535
976.624
976.725
976.837
976.956
977.08
977.206
977.33
977.451
977.566
977.672
977.767
977.849
977.915
977.964
977.994
978.003
977.989
977.951
977.89
977.802
977.683
977.538
977.371
977.162
976.91
976.653
976.365
975.961
975.544
975.231
974.68
973.81
973.425
973.122
971.367
969.909
970.242
969.655
968.16
1019.74
1017.55
1017.48
1017.37
1015.89
1015.47
1014.91
1014.05
1013.44
1013.15
1012.77
1012.32
1011.97
1011.7
1011.42
1011.13
1010.87
1010.63
1010.38
1010.14
1009.91
1009.67
1009.44
1009.2
1008.96
1008.72
1008.47
1008.22
1007.96
1007.69
1007.42
1007.13
1006.84
1006.54
1006.22
1005.9
1005.56
1005.21
1004.84
1004.46
1004.07
1003.66
1003.23
1002.79
1002.33
1001.85
1001.36
1000.84
1000.31
999.767
999.202
998.62
998.02
997.404
996.772
996.124
995.462
994.786
994.098
993.399
992.69
991.972
991.248
990.519
989.786
989.053
988.319
987.588
986.862
986.142
985.429
984.727
984.037
983.359
982.697
982.05
981.422
980.812
980.221
979.65
979.1
978.571
978.064
977.579
977.116
976.674
976.254
975.856
975.479
975.122
974.786
974.469
974.171
973.891
973.63
973.387
973.16
972.949
972.754
972.574
972.408
972.256
972.118
971.992
971.879
971.777
971.687
971.608
971.54
971.482
971.433
971.394
971.364
971.343
971.33
971.325
971.328
971.339
971.356
971.381
971.412
971.45
971.493
971.542
971.598
971.658
971.723
971.794
971.869
971.949
972.033
972.122
972.215
972.312
972.413
972.518
972.627
972.74
972.857
972.979
973.105
973.236
973.371
973.511
973.657
973.808
973.965
974.128
974.298
974.475
974.659
974.851
975.05
975.259
975.476
975.702
975.938
976.184
976.439
976.703
976.978
977.262
977.555
977.858
978.17
978.49
978.818
979.154
979.496
979.844
980.198
980.555
980.915
981.278
981.642
982.006
982.368
982.73
983.088
983.442
983.791
984.133
984.469
984.797
985.116
985.424
985.723
986.011
986.286
986.549
986.8
987.036
987.259
987.468
987.662
987.841
988.006
988.155
988.289
988.409
988.513
988.602
988.676
988.735
988.779
988.808
988.822
988.821
988.805
988.773
988.726
988.663
988.583
988.487
988.373
988.241
988.092
987.923
987.735
987.528
987.301
987.054
986.787
986.5
986.193
985.868
985.524
985.163
984.786
984.394
983.988
983.572
983.146
982.713
982.275
981.835
981.395
980.959
980.529
980.108
979.698
979.303
978.924
978.565
978.227
977.912
977.622
977.359
977.124
976.917
976.739
976.591
976.472
976.382
976.32
976.286
976.277
976.293
976.331
976.388
976.465
976.557
976.662
976.777
976.9
977.028
977.158
977.287
977.413
977.532
977.643
977.743
977.829
977.899
977.952
977.986
977.998
977.989
977.954
977.894
977.811
977.699
977.554
977.386
977.197
976.954
976.673
976.412
976.09
975.616
975.232
974.97
974.228
973.363
973.419
972.822
970.85
970.875
971.346
970.047
1017.64
1017.67
1017.25
1015.77
1015.9
1015.76
1014.58
1013.96
1013.79
1013.37
1012.79
1012.44
1012.19
1011.87
1011.53
1011.26
1011.02
1010.76
1010.5
1010.26
1010.02
1009.78
1009.54
1009.3
1009.06
1008.81
1008.56
1008.31
1008.05
1007.78
1007.5
1007.21
1006.92
1006.61
1006.29
1005.96
1005.62
1005.27
1004.9
1004.52
1004.12
1003.71
1003.28
1002.83
1002.37
1001.88
1001.39
1000.87
1000.33
999.781
999.21
998.622
998.016
997.393
996.753
996.098
995.428
994.744
994.048
993.341
992.623
991.897
991.165
990.427
989.687
988.946
988.205
987.468
986.735
986.01
985.292
984.586
983.892
983.212
982.548
981.901
981.272
980.662
980.073
979.504
978.957
978.431
977.928
977.447
976.988
976.552
976.137
975.743
975.371
975.02
974.688
974.377
974.084
973.809
973.553
973.313
973.09
972.884
972.692
972.515
972.352
972.203
972.067
971.943
971.832
971.732
971.644
971.566
971.499
971.442
971.394
971.356
971.327
971.307
971.295
971.291
971.295
971.306
971.325
971.351
971.383
971.421
971.466
971.516
971.572
971.634
971.7
971.772
971.848
971.929
972.014
972.104
972.198
972.296
972.398
972.503
972.613
972.727
972.845
972.966
973.093
973.223
973.358
973.498
973.644
973.794
973.951
974.113
974.283
974.459
974.642
974.833
975.032
975.24
975.456
975.682
975.917
976.162
976.416
976.68
976.955
977.239
977.533
977.836
978.148
978.469
978.798
979.135
979.478
979.827
980.181
980.54
980.901
981.266
981.631
981.996
982.361
982.724
983.084
983.44
983.79
984.135
984.472
984.802
985.122
985.433
985.734
986.023
986.3
986.564
986.815
987.054
987.278
987.487
987.682
987.863
988.028
988.178
988.313
988.433
988.538
988.627
988.702
988.761
988.806
988.836
988.851
988.851
988.836
988.806
988.76
988.698
988.621
988.526
988.415
988.286
988.138
987.972
987.786
987.581
987.355
987.109
986.843
986.556
986.249
985.923
985.577
985.214
984.833
984.436
984.026
983.604
983.172
982.731
982.286
981.838
981.391
980.946
980.508
980.078
979.66
979.257
978.87
978.504
978.159
977.838
977.543
977.275
977.036
976.826
976.645
976.495
976.375
976.285
976.223
976.19
976.182
976.2
976.241
976.303
976.383
976.479
976.589
976.71
976.838
976.972
977.108
977.243
977.374
977.5
977.616
977.722
977.814
977.89
977.948
977.987
978.004
977.999
977.971
977.915
977.834
977.73
977.597
977.426
977.235
977.033
976.767
976.451
976.191
975.883
975.359
974.951
974.795
974.117
973.208
973.229
973.102
972.143
971.778
972.378
1016.59
1016.98
1016.51
1015.87
1015.68
1014.94
1014.58
1014.33
1013.77
1013.25
1012.97
1012.69
1012.31
1011.97
1011.7
1011.44
1011.16
1010.9
1010.65
1010.41
1010.16
1009.92
1009.68
1009.43
1009.19
1008.94
1008.69
1008.43
1008.16
1007.89
1007.61
1007.32
1007.02
1006.71
1006.39
1006.06
1005.72
1005.36
1004.99
1004.6
1004.2
1003.78
1003.35
1002.9
1002.43
1001.94
1001.44
1000.91
1000.37
999.81
999.231
998.634
998.02
997.387
996.738
996.073
995.393
994.699
993.992
993.273
992.544
991.807
991.063
990.315
989.564
988.812
988.062
987.315
986.574
985.84
985.116
984.404
983.705
983.021
982.354
981.705
981.075
980.465
979.876
979.309
978.765
978.243
977.744
977.267
976.813
976.382
975.973
975.586
975.22
974.875
974.55
974.244
973.957
973.688
973.437
973.203
972.985
972.782
972.595
972.422
972.263
972.117
971.983
971.862
971.753
971.655
971.568
971.492
971.426
971.37
971.323
971.286
971.258
971.238
971.227
971.224
971.229
971.241
971.26
971.287
971.32
971.36
971.406
971.458
971.515
971.578
971.647
971.72
971.798
971.881
971.968
972.06
972.156
972.255
972.359
972.466
972.578
972.693
972.812
972.935
973.063
973.194
973.33
973.471
973.617
973.768
973.925
974.088
974.258
974.434
974.617
974.809
975.008
975.216
975.432
975.658
975.893
976.139
976.393
976.658
976.933
977.218
977.512
977.816
978.129
978.452
978.782
979.12
979.464
979.815
980.171
980.531
980.895
981.261
981.628
981.995
982.362
982.726
983.088
983.446
983.798
984.145
984.484
984.815
985.137
985.45
985.752
986.042
986.321
986.587
986.84
987.079
987.304
987.515
987.711
987.892
988.058
988.209
988.345
988.466
988.571
988.661
988.737
988.797
988.842
988.873
988.889
988.89
988.875
988.847
988.802
988.742
988.667
988.574
988.464
988.337
988.192
988.027
987.844
987.64
987.415
987.17
986.904
986.617
986.308
985.98
985.631
985.263
984.878
984.476
984.059
983.63
983.189
982.741
982.287
981.829
981.372
980.918
980.47
980.03
979.604
979.191
978.797
978.423
978.071
977.744
977.443
977.171
976.927
976.714
976.532
976.38
976.26
976.17
976.109
976.077
976.073
976.094
976.139
976.205
976.29
976.392
976.508
976.635
976.77
976.911
977.054
977.196
977.335
977.467
977.591
977.704
977.802
977.885
977.95
977.995
978.019
978.019
977.996
977.95
977.875
977.772
977.651
977.499
977.305
977.102
976.892
976.602
976.279
976.053
975.731
975.191
974.92
974.8
974.1
973.614
973.796
973.471
973.242
973.84
1016.32
1016.02
1015.79
1015.92
1015.29
1014.71
1014.62
1014.19
1013.69
1013.4
1013.12
1012.73
1012.4
1012.14
1011.87
1011.58
1011.31
1011.06
1010.81
1010.56
1010.32
1010.08
1009.83
1009.58
1009.34
1009.09
1008.83
1008.57
1008.3
1008.03
1007.75
1007.45
1007.15
1006.84
1006.52
1006.18
1005.84
1005.48
1005.1
1004.71
1004.3
1003.88
1003.44
1002.98
1002.51
1002.02
1001.5
1000.97
1000.42
999.854
999.265
998.658
998.033
997.389
996.728
996.051
995.358
994.65
993.929
993.196
992.453
991.702
990.944
990.182
989.417
988.653
987.89
987.131
986.379
985.635
984.902
984.182
983.476
982.787
982.115
981.463
980.831
980.22
979.633
979.068
978.525
978.007
977.512
977.041
976.593
976.168
975.766
975.386
975.027
974.689
974.371
974.072
973.792
973.53
973.285
973.057
972.844
972.647
972.464
972.295
972.14
971.997
971.867
971.748
971.641
971.545
971.46
971.385
971.32
971.265
971.219
971.182
971.154
971.135
971.124
971.122
971.127
971.14
971.16
971.188
971.222
971.263
971.311
971.364
971.423
971.488
971.559
971.635
971.716
971.801
971.891
971.985
972.084
972.186
972.293
972.403
972.518
972.635
972.758
972.884
973.014
973.148
973.286
973.43
973.577
973.731
973.89
974.054
974.225
974.403
974.588
974.781
974.981
975.19
975.408
975.635
975.872
976.118
976.375
976.641
976.917
977.203
977.499
977.805
978.12
978.443
978.775
979.114
979.461
979.813
980.171
980.533
980.898
981.266
981.635
982.004
982.372
982.739
983.102
983.461
983.815
984.163
984.504
984.837
985.161
985.475
985.778
986.07
986.349
986.617
986.87
987.111
987.337
987.549
987.746
987.929
988.096
988.247
988.384
988.505
988.611
988.702
988.778
988.839
988.885
988.917
988.933
988.935
988.922
988.894
988.851
988.792
988.718
988.627
988.519
988.394
988.25
988.087
987.904
987.702
987.478
987.233
986.966
986.677
986.367
986.035
985.682
985.309
984.918
984.509
984.085
983.647
983.197
982.739
982.275
981.807
981.34
980.875
980.416
979.967
979.53
979.109
978.706
978.324
977.966
977.632
977.326
977.049
976.802
976.586
976.402
976.25
976.129
976.04
975.981
975.952
975.951
975.976
976.025
976.097
976.188
976.296
976.419
976.553
976.696
976.845
976.996
977.146
977.294
977.434
977.566
977.687
977.794
977.884
977.956
978.009
978.04
978.049
978.032
977.992
977.928
977.834
977.713
977.579
977.414
977.201
976.992
976.793
976.493
976.165
975.99
975.712
975.2
974.997
974.989
974.571
974.264
974.49
974.731
974.881
1015.86
1015.66
1015.54
1015.35
1014.97
1014.83
1014.43
1013.99
1013.78
1013.49
1013.1
1012.79
1012.56
1012.27
1011.97
1011.71
1011.47
1011.22
1010.96
1010.72
1010.48
1010.24
1009.99
1009.75
1009.5
1009.25
1008.99
1008.73
1008.46
1008.19
1007.9
1007.61
1007.31
1006.99
1006.67
1006.33
1005.98
1005.61
1005.24
1004.84
1004.43
1004
1003.56
1003.09
1002.61
1002.11
1001.59
1001.05
1000.49
999.912
999.312
998.693
998.055
997.398
996.723
996.03
995.322
994.598
993.861
993.111
992.351
991.583
990.808
990.029
989.248
988.468
987.689
986.916
986.151
985.395
984.65
983.92
983.206
982.51
981.833
981.177
980.543
979.931
979.344
978.781
978.241
977.727
977.237
976.771
976.33
975.912
975.517
975.145
974.794
974.464
974.154
973.863
973.591
973.336
973.099
972.878
972.671
972.479
972.302
972.138
971.986
971.847
971.72
971.604
971.499
971.405
971.321
971.247
971.182
971.128
971.082
971.045
971.017
970.998
970.987
970.984
970.99
971.003
971.024
971.052
971.087
971.129
971.177
971.233
971.294
971.362
971.435
971.513
971.597
971.686
971.78
971.878
971.98
972.087
972.198
972.313
972.431
972.554
972.681
972.811
972.945
973.083
973.226
973.373
973.525
973.682
973.845
974.013
974.188
974.369
974.557
974.752
974.956
975.168
975.389
975.618
975.857
976.106
976.365
976.633
976.912
977.2
977.499
977.806
978.123
978.449
978.783
979.124
979.472
979.826
980.186
980.549
980.916
981.285
981.655
982.026
982.395
982.763
983.127
983.488
983.843
984.192
984.534
984.867
985.192
985.507
985.811
986.103
986.384
986.652
986.907
987.148
987.375
987.588
987.786
987.969
988.136
988.289
988.426
988.548
988.655
988.747
988.823
988.885
988.932
988.964
988.981
988.984
988.972
988.945
988.903
988.845
988.772
988.682
988.576
988.451
988.309
988.147
987.965
987.763
987.539
987.293
987.025
986.734
986.42
986.085
985.727
985.349
984.951
984.534
984.102
983.654
983.195
982.726
982.251
981.773
981.294
980.818
980.349
979.89
979.443
979.013
978.602
978.212
977.846
977.506
977.195
976.914
976.663
976.445
976.259
976.106
975.986
975.898
975.841
975.815
975.818
975.847
975.902
975.979
976.077
976.193
976.323
976.466
976.617
976.774
976.934
977.093
977.25
977.4
977.541
977.671
977.786
977.885
977.967
978.027
978.066
978.083
978.077
978.043
977.987
977.909
977.799
977.664
977.523
977.349
977.127
976.931
976.744
976.445
976.165
976.045
975.789
975.423
975.366
975.344
975.181
975.288
975.555
975.959
1015.34
1015.38
1015.28
1014.94
1014.84
1014.66
1014.25
1014.01
1013.77
1013.43
1013.15
1012.91
1012.63
1012.34
1012.1
1011.86
1011.61
1011.36
1011.12
1010.89
1010.64
1010.4
1010.16
1009.92
1009.67
1009.42
1009.17
1008.91
1008.64
1008.36
1008.08
1007.78
1007.48
1007.16
1006.84
1006.5
1006.14
1005.77
1005.39
1004.99
1004.58
1004.14
1003.69
1003.22
1002.73
1002.22
1001.69
1001.14
1000.57
999.983
999.371
998.738
998.086
997.413
996.722
996.012
995.286
994.544
993.788
993.019
992.239
991.451
990.656
989.858
989.058
988.258
987.462
986.672
985.891
985.12
984.363
983.621
982.898
982.194
981.51
980.849
980.212
979.6
979.012
978.451
977.915
977.405
976.92
976.461
976.027
975.617
975.231
974.868
974.526
974.205
973.904
973.622
973.358
973.112
972.882
972.668
972.469
972.283
972.111
971.952
971.805
971.669
971.545
971.432
971.329
971.236
971.153
971.079
971.015
970.961
970.914
970.877
970.848
970.828
970.816
970.813
970.818
970.83
970.85
970.878
970.914
970.957
971.007
971.063
971.127
971.196
971.272
971.354
971.442
971.534
971.632
971.736
971.843
971.955
972.072
972.192
972.317
972.446
972.579
972.716
972.856
973.001
973.15
973.304
973.462
973.625
973.793
973.967
974.147
974.333
974.527
974.727
974.935
975.152
975.377
975.611
975.854
976.107
976.369
976.641
976.923
977.214
977.515
977.826
978.145
978.473
978.809
979.152
979.502
979.858
980.219
980.583
980.951
981.322
981.693
982.063
982.433
982.801
983.166
983.527
983.882
984.231
984.573
984.907
985.232
985.546
985.851
986.143
986.424
986.692
986.947
987.188
987.416
987.629
987.827
988.01
988.178
988.331
988.469
988.591
988.699
988.791
988.868
988.93
988.978
989.011
989.029
989.032
989.021
988.995
988.953
988.896
988.824
988.735
988.629
988.506
988.364
988.202
988.021
987.818
987.594
987.346
987.077
986.783
986.466
986.126
985.764
985.379
984.974
984.549
984.107
983.651
983.181
982.702
982.216
981.726
981.236
980.75
980.27
979.8
979.344
978.905
978.485
978.087
977.715
977.37
977.053
976.768
976.514
976.294
976.106
975.953
975.833
975.747
975.692
975.669
975.676
975.71
975.771
975.855
975.959
976.083
976.221
976.372
976.533
976.7
976.869
977.038
977.205
977.365
977.516
977.655
977.78
977.889
977.979
978.049
978.098
978.123
978.126
978.105
978.056
977.987
977.898
977.774
977.631
977.492
977.317
977.095
976.921
976.764
976.49
976.264
976.206
976.041
975.819
975.855
975.996
976.063
976.287
976.874
1015.05
1015.05
1014.95
1014.81
1014.67
1014.38
1014.2
1014.01
1013.68
1013.43
1013.22
1012.96
1012.68
1012.45
1012.22
1011.97
1011.73
1011.51
1011.27
1011.04
1010.8
1010.57
1010.33
1010.09
1009.85
1009.6
1009.35
1009.09
1008.82
1008.55
1008.26
1007.97
1007.66
1007.35
1007.02
1006.68
1006.32
1005.95
1005.56
1005.16
1004.74
1004.3
1003.84
1003.37
1002.87
1002.35
1001.81
1001.25
1000.67
1000.07
999.44
998.793
998.124
997.435
996.725
995.997
995.25
994.487
993.71
992.919
992.117
991.306
990.489
989.668
988.846
988.025
987.209
986.4
985.6
984.813
984.041
983.286
982.551
981.838
981.147
980.481
979.84
979.227
978.64
978.08
977.548
977.042
976.565
976.113
975.687
975.286
974.91
974.556
974.224
973.914
973.623
973.351
973.097
972.86
972.639
972.432
972.24
972.062
971.896
971.742
971.599
971.468
971.346
971.236
971.134
971.043
970.96
970.887
970.822
970.767
970.72
970.681
970.651
970.629
970.615
970.611
970.614
970.625
970.644
970.671
970.706
970.749
970.8
970.857
970.922
970.994
971.072
971.158
971.249
971.346
971.449
971.558
971.672
971.791
971.914
972.042
972.175
972.312
972.453
972.598
972.747
972.901
973.058
973.22
973.387
973.558
973.735
973.917
974.105
974.299
974.5
974.707
974.922
975.145
975.376
975.616
975.865
976.123
976.39
976.667
976.953
977.248
977.553
977.867
978.189
978.52
978.858
979.203
979.554
979.911
980.273
980.639
981.007
981.378
981.749
982.119
982.489
982.856
983.221
983.58
983.935
984.283
984.623
984.956
985.28
985.593
985.896
986.188
986.468
986.735
986.989
987.229
987.456
987.668
987.866
988.049
988.217
988.37
988.508
988.631
988.738
988.831
988.909
988.971
989.019
989.053
989.071
989.075
989.064
989.039
988.998
988.942
988.87
988.781
988.676
988.552
988.41
988.249
988.067
987.864
987.638
987.389
987.117
986.821
986.5
986.156
985.788
985.397
984.984
984.552
984.101
983.635
983.155
982.665
982.169
981.668
981.168
980.671
980.181
979.701
979.236
978.787
978.359
977.955
977.576
977.224
976.903
976.614
976.357
976.135
975.946
975.792
975.673
975.588
975.536
975.517
975.528
975.567
975.634
975.724
975.837
975.968
976.115
976.276
976.445
976.622
976.802
976.981
977.158
977.329
977.49
977.64
977.775
977.894
977.995
978.075
978.134
978.169
978.181
978.171
978.136
978.073
977.995
977.899
977.768
977.624
977.494
977.324
977.12
976.981
976.849
976.632
976.497
976.477
976.404
976.376
976.515
976.72
977.021
977.563
1014.84
1014.78
1014.7
1014.66
1014.47
1014.27
1014.14
1013.89
1013.66
1013.47
1013.23
1012.98
1012.77
1012.55
1012.31
1012.08
1011.86
1011.64
1011.41
1011.19
1010.96
1010.73
1010.5
1010.27
1010.03
1009.78
1009.53
1009.27
1009.01
1008.74
1008.45
1008.16
1007.86
1007.54
1007.21
1006.87
1006.51
1006.14
1005.75
1005.34
1004.92
1004.47
1004.01
1003.52
1003.02
1002.49
1001.94
1001.37
1000.78
1000.16
999.52
998.857
998.17
997.462
996.733
995.983
995.215
994.43
993.628
992.813
991.985
991.149
990.307
989.461
988.614
987.769
986.929
986.098
985.278
984.472
983.683
982.914
982.166
981.443
980.744
980.072
979.428
978.812
978.227
977.669
977.141
976.643
976.172
975.729
975.312
974.922
974.556
974.213
973.893
973.594
973.314
973.053
972.81
972.583
972.371
972.174
971.99
971.819
971.659
971.511
971.373
971.246
971.128
971.019
970.919
970.828
970.746
970.672
970.607
970.55
970.501
970.46
970.427
970.403
970.387
970.38
970.381
970.39
970.407
970.432
970.466
970.508
970.558
970.616
970.682
970.756
970.837
970.925
971.021
971.123
971.231
971.346
971.467
971.593
971.725
971.862
972.004
972.15
972.302
972.457
972.617
972.781
972.95
973.123
973.301
973.483
973.671
973.864
974.062
974.266
974.477
974.694
974.918
975.15
975.389
975.637
975.893
976.158
976.432
976.714
977.005
977.306
977.615
977.932
978.258
978.591
978.932
979.279
979.632
979.99
980.352
980.718
981.086
981.456
981.826
982.196
982.563
982.929
983.292
983.649
984.001
984.347
984.685
985.015
985.336
985.647
985.948
986.237
986.515
986.78
987.032
987.27
987.495
987.706
987.902
988.084
988.251
988.403
988.54
988.662
988.77
988.862
988.94
989.003
989.051
989.084
989.103
989.108
989.097
989.071
989.031
988.975
988.903
988.815
988.71
988.586
988.444
988.282
988.099
987.894
987.667
987.417
987.142
986.842
986.518
986.169
985.796
985.399
984.98
984.539
984.081
983.605
983.116
982.617
982.11
981.6
981.089
980.582
980.083
979.594
979.12
978.663
978.228
977.816
977.431
977.074
976.749
976.455
976.196
975.971
975.781
975.628
975.509
975.426
975.376
975.36
975.375
975.421
975.493
975.59
975.71
975.85
976.006
976.176
976.356
976.543
976.733
976.923
977.111
977.293
977.465
977.626
977.772
977.902
978.013
978.104
978.174
978.221
978.243
978.242
978.221
978.174
978.101
978.018
977.919
977.785
977.65
977.535
977.38
977.205
977.106
977.014
976.869
976.812
976.861
976.896
976.993
977.242
977.579
978.096
1014.62
1014.6
1014.55
1014.45
1014.32
1014.22
1014.03
1013.82
1013.67
1013.46
1013.23
1013.04
1012.84
1012.61
1012.4
1012.19
1011.98
1011.76
1011.55
1011.33
1011.11
1010.89
1010.67
1010.44
1010.2
1009.96
1009.72
1009.46
1009.2
1008.93
1008.65
1008.36
1008.06
1007.74
1007.41
1007.07
1006.71
1006.33
1005.94
1005.53
1005.1
1004.66
1004.19
1003.7
1003.18
1002.65
1002.09
1001.5
1000.9
1000.27
999.609
998.928
998.224
997.496
996.745
995.973
995.18
994.369
993.541
992.699
991.844
990.979
990.109
989.235
988.36
987.488
986.623
985.767
984.924
984.098
983.29
982.504
981.742
981.007
980.3
979.621
978.975
978.358
977.772
977.219
976.696
976.204
975.742
975.309
974.904
974.525
974.171
973.841
973.534
973.247
972.98
972.731
972.5
972.284
972.083
971.895
971.72
971.557
971.404
971.262
971.13
971.006
970.891
970.785
970.687
970.597
970.515
970.44
970.373
970.314
970.262
970.219
970.183
970.155
970.136
970.125
970.123
970.128
970.142
970.165
970.197
970.237
970.286
970.344
970.41
970.485
970.568
970.659
970.759
970.865
970.98
971.101
971.229
971.364
971.505
971.651
971.804
971.962
972.125
972.293
972.466
972.643
972.825
973.012
973.203
973.399
973.6
973.807
974.018
974.235
974.458
974.687
974.923
975.166
975.416
975.674
975.939
976.213
976.494
976.784
977.082
977.388
977.702
978.024
978.354
978.69
979.034
979.382
979.736
980.095
980.457
980.823
981.19
981.558
981.926
982.293
982.659