# vtk DataFile Version 2.0
LBE mesh
ASCII
DATASET STRUCTURED_POINTS
DIMENSIONS 300 100 1
ASPECT_RATIO 1 1 1
ORIGIN 0 0 0
POINT_DATA 30000
SCALARS rho double 1
LOOKUP_TABLE default
1046.35
1014.61
1013.91
1020.41
1018.59
1014.69
1014.5
1015.03
1014.26
1013.47
1013.31
1013.16
1012.79
1012.49
1012.29
1012.08
1011.84
1011.62
1011.41
1011.2
1010.98
1010.76
1010.55
1010.32
1010.09
1009.86
1009.62
1009.37
1009.11
1008.84
1008.57
1008.28
1007.98
1007.67
1007.35
1007.02
1006.67
1006.3
1005.93
1005.53
1005.12
1004.7
1004.25
1003.79
1003.31
1002.82
1002.3
1001.76
1001.21
1000.63
1000.04
999.425
998.792
998.14
997.47
996.782
996.077
995.356
994.62
993.87
993.108
992.334
991.552
990.761
989.964
989.163
988.36
987.556
986.755
985.957
985.165
984.381
983.606
982.844
982.094
981.36
980.642
979.942
979.261
978.6
977.961
977.343
976.749
976.177
975.63
975.107
974.607
974.132
973.68
973.252
972.848
972.467
972.109
971.774
971.46
971.168
970.897
970.646
970.415
970.203
970.01
969.835
969.678
969.537
969.413
969.305
969.212
969.135
969.072
969.023
968.988
968.966
968.957
968.96
968.976
969.003
969.042
969.093
969.154
969.226
969.309
969.402
969.505
969.618
969.74
969.872
970.014
970.165
970.325
970.494
970.672
970.859
971.054
971.259
971.471
971.692
971.921
972.158
972.403
972.655
972.914
973.181
973.454
973.734
974.02
974.312
974.609
974.911
975.216
975.525
975.838
976.152
976.469
976.786
977.103
977.42
977.735
978.049
978.359
978.666
978.968
979.265
979.555
979.839
980.116
980.384
980.643
980.893
981.133
981.363
981.581
981.788
981.983
982.166
982.337
982.496
982.641
982.775
982.895
983.003
983.098
983.179
983.248
983.305
983.348
983.379
983.396
983.401
983.392
983.37
983.334
983.284
983.219
983.138
983.043
982.931
982.803
982.658
982.496
982.317
982.12
981.906
981.676
981.43
981.168
980.892
980.602
980.301
979.989
979.668
979.342
979.011
978.679
978.347
978.019
977.698
977.385
977.084
976.797
976.528
976.279
976.052
975.848
975.671
975.521
975.399
975.307
975.245
975.213
975.211
975.24
975.297
975.382
975.493
975.629
975.788
975.968
976.166
976.381
976.61
976.851
977.1
977.356
977.616
977.879
978.14
978.399
978.654
978.902
979.143
979.374
979.594
979.802
979.999
980.181
980.349
980.503
980.643
980.768
980.879
980.976
981.059
981.129
981.186
981.231
981.265
981.287
981.3
981.303
981.297
981.282
981.259
981.227
981.188
981.14
981.084
981.02
980.946
980.862
980.767
980.66
980.535
980.394
980.243
980.066
979.846
979.62
979.389
979.044
978.622
978.349
977.944
976.961
976.316
976.506
974.592
970.852
972.995
973.864
950.316
1029.22
1025.68
1021.6
1016.4
1016.6
1016.77
1015.6
1014.45
1014.22
1013.98
1013.51
1013.12
1012.89
1012.64
1012.37
1012.12
1011.9
1011.68
1011.45
1011.23
1011.01
1010.79
1010.57
1010.34
1010.11
1009.87
1009.62
1009.37
1009.11
1008.84
1008.56
1008.27
1007.97
1007.66
1007.33
1006.99
1006.64
1006.28
1005.9
1005.5
1005.09
1004.66
1004.22
1003.76
1003.27
1002.77
1002.26
1001.72
1001.16
1000.59
999.991
999.377
998.744
998.092
997.422
996.734
996.029
995.309
994.573
993.824
993.063
992.292
991.51
990.722
989.927
989.129
988.328
987.528
986.729
985.935
985.146
984.365
983.594
982.835
982.088
981.358
980.643
979.946
979.269
978.612
977.976
977.361
976.77
976.202
975.657
975.136
974.639
974.165
973.716
973.291
972.888
972.509
972.153
971.818
971.506
971.215
970.945
970.695
970.465
970.254
970.061
969.887
969.729
969.589
969.466
969.358
969.265
969.188
969.125
969.076
969.041
969.018
969.009
969.012
969.027
969.054
969.093
969.143
969.204
969.275
969.357
969.45
969.552
969.664
969.786
969.917
970.058
970.208
970.367
970.535
970.712
970.897
971.092
971.294
971.506
971.725
971.953
972.188
972.431
972.682
972.941
973.206
973.478
973.756
974.041
974.331
974.626
974.927
975.231
975.539
975.85
976.163
976.478
976.794
977.11
977.426
977.74
978.053
978.362
978.668
978.97
979.266
979.556
979.839
980.115
980.383
980.642
980.892
981.132
981.361
981.58
981.787
981.982
982.165
982.337
982.495
982.641
982.774
982.895
983.002
983.097
983.179
983.248
983.305
983.348
983.379
983.396
983.401
983.393
983.371
983.335
983.285
983.221
983.142
983.047
982.937
982.81
982.667
982.507
982.33
982.136
981.925
981.698
981.454
981.195
980.922
980.635
980.336
980.026
979.708
979.384
979.055
978.724
978.393
978.066
977.744
977.431
977.13
976.843
976.572
976.321
976.092
975.886
975.706
975.552
975.427
975.332
975.266
975.231
975.225
975.25
975.302
975.384
975.491
975.624
975.779
975.956
976.152
976.364
976.591
976.829
977.076
977.331
977.589
977.851
978.112
978.37
978.625
978.873
979.113
979.345
979.566
979.775
979.972
980.155
980.325
980.48
980.621
980.747
980.859
980.957
981.042
981.112
981.171
981.216
981.25
981.273
981.286
981.288
981.282
981.266
981.242
981.21
981.169
981.12
981.062
980.995
980.919
980.832
980.733
980.621
980.496
980.352
980.186
980.004
979.801
979.549
979.262
978.979
978.615
978.102
977.631
977.22
976.276
975.042
974.607
973.514
969.443
965.715
963.684
1021.1
1025.94
1021.27
1016.98
1017.23
1016.97
1015.59
1014.65
1014.47
1014.13
1013.61
1013.24
1013
1012.73
1012.44
1012.19
1011.97
1011.73
1011.5
1011.28
1011.05
1010.83
1010.6
1010.37
1010.13
1009.89
1009.64
1009.38
1009.12
1008.85
1008.56
1008.27
1007.97
1007.66
1007.33
1006.99
1006.64
1006.27
1005.89
1005.49
1005.08
1004.65
1004.2
1003.73
1003.25
1002.75
1002.23
1001.69
1001.13
1000.56
999.959
999.343
998.708
998.055
997.384
996.695
995.989
995.268
994.532
993.782
993.021
992.249
991.467
990.678
989.884
989.086
988.286
987.486
986.688
985.895
985.107
984.328
983.558
982.801
982.057
981.329
980.616
979.922
979.247
978.593
977.96
977.348
976.759
976.194
975.651
975.133
974.639
974.168
973.722
973.298
972.899
972.522
972.168
971.835
971.525
971.236
970.967
970.719
970.491
970.281
970.09
969.916
969.76
969.621
969.498
969.391
969.299
969.223
969.16
969.112
969.077
969.055
969.046
969.049
969.065
969.092
969.13
969.18
969.241
969.312
969.394
969.486
969.588
969.699
969.821
969.951
970.091
970.241
970.399
970.566
970.742
970.927
971.121
971.322
971.532
971.751
971.977
972.212
972.454
972.704
972.961
973.225
973.496
973.774
974.057
974.347
974.641
974.941
975.244
975.552
975.862
976.175
976.489
976.805
977.12
977.436
977.75
978.062
978.372
978.677
978.979
979.276
979.566
979.849
980.126
980.394
980.653
980.903
981.144
981.373
981.592
981.8
981.995
982.179
982.351
982.51
982.656
982.789
982.91
983.018
983.113
983.195
983.264
983.32
983.364
983.395
983.413
983.418
983.41
983.388
983.353
983.304
983.241
983.163
983.07
982.962
982.837
982.696
982.538
982.364
982.172
981.963
981.738
981.496
981.239
980.967
980.681
980.384
980.075
979.757
979.432
979.102
978.77
978.438
978.109
977.785
977.469
977.165
976.874
976.599
976.344
976.111
975.901
975.716
975.559
975.43
975.33
975.26
975.221
975.213
975.234
975.284
975.362
975.468
975.598
975.753
975.928
976.123
976.334
976.561
976.799
977.047
977.302
977.562
977.824
978.086
978.346
978.602
978.852
979.094
979.327
979.55
979.761
979.959
980.145
980.316
980.473
980.615
980.743
980.856
980.954
981.039
981.111
981.169
981.215
981.249
981.272
981.284
981.286
981.279
981.262
981.237
981.203
981.161
981.111
981.051
980.982
980.904
980.816
980.716
980.6
980.473
980.331
980.161
979.969
979.771
979.532
979.213
978.911
978.631
978.1
977.44
977.205
976.645
974.779
974.041
974.996
970.782
965.257
969.325
1020.83
1019.57
1019.05
1020.26
1017.76
1015.67
1015.64
1015.57
1014.68
1013.98
1013.76
1013.51
1013.11
1012.79
1012.55
1012.31
1012.04
1011.8
1011.57
1011.34
1011.11
1010.88
1010.65
1010.41
1010.17
1009.93
1009.67
1009.42
1009.15
1008.87
1008.59
1008.3
1007.99
1007.67
1007.34
1007
1006.65
1006.28
1005.89
1005.5
1005.08
1004.65
1004.2
1003.73
1003.25
1002.74
1002.22
1001.68
1001.12
1000.54
999.94
999.321
998.684
998.028
997.354
996.662
995.953
995.229
994.49
993.738
992.973
992.198
991.414
990.623
989.826
989.025
988.224
987.422
986.623
985.828
985.04
984.26
983.491
982.733
981.99
981.262
980.551
979.859
979.186
978.533
977.902
977.294
976.708
976.145
975.606
975.091
974.6
974.133
973.689
973.269
972.873
972.499
972.148
971.819
971.511
971.225
970.959
970.713
970.487
970.279
970.09
969.919
969.764
969.627
969.506
969.4
969.31
969.234
969.173
969.126
969.092
969.071
969.063
969.067
969.083
969.111
969.15
969.201
969.262
969.333
969.415
969.508
969.61
969.721
969.843
969.973
970.113
970.263
970.421
970.588
970.764
970.948
971.141
971.342
971.552
971.77
971.996
972.23
972.472
972.721
972.977
973.241
973.512
973.789
974.072
974.361
974.655
974.955
975.258
975.565
975.876
976.189
976.503
976.819
977.135
977.451
977.766
978.079
978.389
978.695
978.998
979.295
979.586
979.87
980.147
980.417
980.677
980.928
981.169
981.399
981.619
981.827
982.024
982.208
982.38
982.539
982.686
982.82
982.941
983.049
983.144
983.226
983.295
983.352
983.396
983.427
983.445
983.45
983.443
983.422
983.388
983.34
983.279
983.202
983.111
983.004
982.882
982.743
982.587
982.414
982.225
982.017
981.794
981.553
981.297
981.025
980.739
980.44
980.131
979.811
979.483
979.15
978.815
978.478
978.144
977.815
977.494
977.184
976.887
976.607
976.346
976.106
975.891
975.701
975.538
975.405
975.301
975.227
975.185
975.173
975.192
975.241
975.318
975.423
975.554
975.708
975.884
976.08
976.294
976.522
976.762
977.013
977.27
977.533
977.798
978.063
978.326
978.585
978.838
979.083
979.32
979.545
979.759
979.96
980.147
980.32
980.479
980.622
980.751
980.866
980.965
981.051
981.122
981.181
981.226
981.259
981.282
981.293
981.294
981.286
981.268
981.242
981.208
981.164
981.113
981.052
980.983
980.904
980.814
980.715
980.602
980.47
980.325
980.168
979.978
979.753
979.53
979.277
978.909
978.531
978.252
977.724
976.868
976.489
976.172
974.361
972.817
973.04
972.238
970.408
1020.82
1018.66
1018.6
1018.51
1017.05
1016.65
1016.1
1015.26
1014.66
1014.38
1014.01
1013.57
1013.22
1012.96
1012.69
1012.41
1012.15
1011.91
1011.67
1011.43
1011.19
1010.96
1010.72
1010.48
1010.24
1009.99
1009.74
1009.47
1009.2
1008.93
1008.64
1008.34
1008.04
1007.72
1007.38
1007.04
1006.68
1006.31
1005.93
1005.52
1005.11
1004.67
1004.22
1003.75
1003.26
1002.76
1002.23
1001.68
1001.12
1000.54
999.933
999.31
998.669
998.008
997.328
996.632
995.918
995.188
994.444
993.686
992.915
992.135
991.345
990.549
989.746
988.941
988.134
987.328
986.525
985.727
984.936
984.153
983.382
982.623
981.879
981.151
980.44
979.748
979.076
978.426
977.797
977.191
976.608
976.049
975.514
975.002
974.515
974.052
973.612
973.197
972.804
972.434
972.087
971.762
971.458
971.176
970.914
970.671
970.448
970.244
970.058
969.889
969.738
969.603
969.484
969.381
969.292
969.219
969.159
969.114
969.082
969.063
969.056
969.062
969.08
969.109
969.149
969.201
969.263
969.336
969.419
969.513
969.616
969.728
969.851
969.982
970.122
970.272
970.431
970.599
970.775
970.96
971.153
971.355
971.565
971.783
972.009
972.243
972.485
972.735
972.992
973.256
973.526
973.804
974.088
974.377
974.672
974.972
975.275
975.583
975.894
976.208
976.524
976.841
977.158
977.474
977.79
978.104
978.415
978.723
979.027
979.325
979.618
979.903
980.182
980.452
980.714
980.966
981.208
981.44
981.66
981.869
982.067
982.252
982.425
982.585
982.732
982.866
982.987
983.096
983.191
983.273
983.342
983.399
983.443
983.474
983.493
983.499
983.492
983.472
983.439
983.393
983.332
983.257
983.168
983.063
982.943
982.805
982.652
982.48
982.292
982.086
981.863
981.622
981.365
981.092
980.805
980.503
980.19
979.866
979.534
979.196
978.854
978.511
978.169
977.833
977.504
977.186
976.882
976.594
976.326
976.079
975.857
975.661
975.493
975.354
975.246
975.169
975.124
975.111
975.128
975.176
975.254
975.36
975.491
975.648
975.827
976.026
976.242
976.474
976.719
976.973
977.235
977.502
977.772
978.042
978.309
978.573
978.83
979.079
979.319
979.549
979.766
979.97
980.16
980.336
980.496
980.642
980.772
980.887
980.988
981.073
981.145
981.203
981.248
981.281
981.302
981.313
981.313
981.304
981.285
981.258
981.223
981.18
981.128
981.067
980.998
980.92
980.832
980.731
980.621
980.496
980.348
980.191
980.02
979.803
979.554
979.33
979.042
978.601
978.25
978.009
977.273
976.402
976.435
975.777
973.688
973.574
973.83
972.154
1018.73
1018.78
1018.38
1016.92
1017.07
1016.93
1015.77
1015.16
1015.01
1014.6
1014.03
1013.68
1013.44
1013.13
1012.8
1012.54
1012.3
1012.04
1011.79
1011.55
1011.31
1011.07
1010.83
1010.58
1010.33
1010.08
1009.82
1009.56
1009.29
1009.01
1008.72
1008.42
1008.11
1007.79
1007.45
1007.11
1006.75
1006.37
1005.98
1005.58
1005.16
1004.72
1004.26
1003.79
1003.3
1002.79
1002.26
1001.71
1001.14
1000.55
999.939
999.31
998.661
997.993
997.307
996.602
995.881
995.143
994.391
993.624
992.845
992.056
991.258
990.453
989.643
988.83
988.015
987.202
986.393
985.588
984.792
984.004
983.229
982.467
981.72
980.99
980.279
979.587
978.916
978.267
977.64
977.036
976.457
975.901
975.369
974.862
974.38
973.921
973.487
973.076
972.689
972.324
971.982
971.662
971.363
971.086
970.828
970.59
970.371
970.17
969.988
969.823
969.675
969.543
969.428
969.327
969.242
969.172
969.115
969.072
969.042
969.026
969.022
969.03
969.05
969.082
969.124
969.178
969.243
969.318
969.403
969.499
969.603
969.718
969.842
969.976
970.118
970.27
970.43
970.599
970.777
970.963
971.158
971.361
971.572
971.792
972.019
972.255
972.497
972.748
973.006
973.271
973.543
973.822
974.107
974.397
974.693
974.994
975.3
975.609
975.921
976.236
976.553
976.872
977.19
977.508
977.826
978.141
978.454
978.763
979.068
979.368
979.662
979.949
980.229
980.501
980.764
981.018
981.261
981.494
981.716
981.926
982.124
982.31
982.484
982.644
982.792
982.927
983.048
983.157
983.252
983.335
983.404
983.461
983.505
983.537
983.556
983.562
983.556
983.537
983.505
983.459
983.4
983.327
983.239
983.136
983.017
982.881
982.728
982.558
982.371
982.165
981.941
981.7
981.441
981.166
980.874
980.568
980.25
979.92
979.581
979.235
978.885
978.533
978.183
977.837
977.499
977.172
976.858
976.561
976.284
976.03
975.8
975.597
975.424
975.28
975.169
975.089
975.042
975.027
975.044
975.093
975.172
975.279
975.414
975.574
975.757
975.96
976.182
976.419
976.669
976.929
977.197
977.47
977.746
978.021
978.294
978.564
978.826
979.081
979.326
979.56
979.781
979.989
980.182
980.36
980.523
980.671
980.803
980.919
981.02
981.106
981.178
981.236
981.28
981.312
981.333
981.343
981.343
981.333
981.314
981.286
981.251
981.208
981.157
981.098
981.03
980.953
980.868
980.771
980.661
980.542
980.408
980.246
980.074
979.898
979.664
979.382
979.158
978.883
978.382
977.993
977.844
977.149
976.193
976.153
975.915
974.784
974.196
974.433
1017.69
1018.1
1017.64
1017.02
1016.85
1016.12
1015.77
1015.54
1014.99
1014.48
1014.21
1013.93
1013.56
1013.22
1012.97
1012.71
1012.44
1012.18
1011.93
1011.69
1011.44
1011.2
1010.95
1010.71
1010.46
1010.2
1009.94
1009.67
1009.4
1009.11
1008.82
1008.52
1008.21
1007.88
1007.55
1007.2
1006.83
1006.46
1006.06
1005.66
1005.23
1004.79
1004.33
1003.85
1003.35
1002.84
1002.3
1001.75
1001.17
1000.57
999.956
999.319
998.662
997.985
997.289
996.574
995.842
995.094
994.33
993.552
992.762
991.962
991.152
990.335
989.514
988.69
987.865
987.042
986.223
985.411
984.606
983.812
983.031
982.264
981.513
980.78
980.066
979.373
978.703
978.054
977.429
976.828
976.252
975.7
975.173
974.671
974.194
973.741
973.312
972.908
972.526
972.168
971.832
971.518
971.224
970.952
970.7
970.467
970.253
970.057
969.88
969.719
969.575
969.447
969.335
969.239
969.157
969.09
969.037
968.997
968.971
968.958
968.957
968.968
968.992
969.026
969.073
969.13
969.198
969.276
969.365
969.463
969.572
969.69
969.817
969.954
970.099
970.254
970.417
970.589
970.77
970.959
971.157
971.363
971.576
971.798
972.028
972.266
972.511
972.764
973.025
973.292
973.566
973.846
974.133
974.426
974.724
975.027
975.334
975.645
975.96
976.276
976.595
976.915
977.235
977.555
977.874
978.191
978.506
978.817
979.123
979.425
979.72
980.009
980.291
980.564
980.828
981.083
981.328
981.561
981.784
981.996
982.195
982.382
982.556
982.718
982.866
983.001
983.123
983.232
983.328
983.41
983.48
983.537
983.581
983.613
983.632
983.639
983.633
983.614
983.583
983.539
983.48
983.408
983.321
983.219
983.101
982.966
982.814
982.645
982.457
982.25
982.025
981.782
981.52
981.24
980.944
980.633
980.307
979.969
979.622
979.267
978.907
978.545
978.183
977.827
977.478
977.14
976.816
976.509
976.223
975.96
975.723
975.514
975.335
975.187
975.071
974.989
974.941
974.925
974.944
974.993
975.075
975.186
975.324
975.488
975.676
975.886
976.113
976.357
976.613
976.88
977.155
977.435
977.718
978
978.28
978.556
978.825
979.085
979.336
979.575
979.801
980.013
980.21
980.392
980.557
980.707
980.841
980.958
981.06
981.147
981.219
981.276
981.321
981.353
981.373
981.383
981.382
981.372
981.354
981.327
981.292
981.25
981.2
981.144
981.079
981.005
980.923
980.833
980.729
980.612
980.489
980.346
980.172
979.997
979.819
979.563
979.275
979.08
978.781
978.254
977.983
977.844
977.095
976.533
976.597
976.108
975.674
975.92
1017.42
1017.14
1016.92
1017.07
1016.45
1015.89
1015.81
1015.4
1014.9
1014.62
1014.35
1013.98
1013.65
1013.4
1013.13
1012.84
1012.58
1012.34
1012.09
1011.84
1011.59
1011.35
1011.1
1010.85
1010.6
1010.34
1010.08
1009.81
1009.53
1009.25
1008.95
1008.65
1008.33
1008.01
1007.67
1007.32
1006.95
1006.57
1006.17
1005.76
1005.33
1004.88
1004.42
1003.94
1003.43
1002.91
1002.37
1001.8
1001.22
1000.61
999.987
999.339
998.671
997.983
997.275
996.548
995.803
995.041
994.263
993.471
992.667
991.851
991.027
990.196
989.36
988.522
987.684
986.849
986.018
985.194
984.38
983.577
982.788
982.014
981.258
980.521
979.805
979.11
978.438
977.791
977.167
976.569
975.996
975.448
974.926
974.43
973.958
973.512
973.09
972.692
972.317
971.966
971.637
971.329
971.042
970.776
970.53
970.304
970.095
969.905
969.733
969.577
969.438
969.315
969.207
969.115
969.037
968.974
968.925
968.889
968.867
968.857
968.86
968.876
968.903
968.942
968.992
969.054
969.127
969.209
969.303
969.406
969.519
969.642
969.774
969.915
970.066
970.225
970.393
970.57
970.755
970.949
971.15
971.361
971.579
971.805
972.039
972.28
972.53
972.786
973.05
973.32
973.597
973.881
974.171
974.466
974.767
975.073
975.382
975.696
976.012
976.331
976.652
976.974
977.296
977.618
977.939
978.258
978.573
978.886
979.194
979.496
979.794
980.084
980.366
980.64
980.906
981.161
981.407
981.642
981.865
982.078
982.278
982.465
982.64
982.802
982.951
983.086
983.208
983.318
983.414
983.496
983.566
983.623
983.668
983.699
983.719
983.725
983.72
983.701
983.67
983.626
983.569
983.497
983.411
983.309
983.192
983.057
982.905
982.735
982.546
982.338
982.11
981.864
981.597
981.313
981.011
980.692
980.358
980.012
979.654
979.289
978.918
978.544
978.171
977.803
977.442
977.093
976.758
976.441
976.146
975.875
975.63
975.414
975.23
975.078
974.959
974.875
974.826
974.81
974.83
974.882
974.966
975.081
975.224
975.394
975.588
975.803
976.038
976.289
976.553
976.828
977.111
977.398
977.689
977.979
978.266
978.549
978.825
979.092
979.349
979.593
979.825
980.041
980.243
980.428
980.597
980.749
980.885
981.004
981.107
981.194
981.267
981.325
981.37
981.402
981.422
981.432
981.432
981.423
981.405
981.379
981.347
981.307
981.26
981.206
981.146
981.078
981
980.916
980.824
980.715
980.594
980.47
980.326
980.141
979.966
979.802
979.536
979.238
979.086
978.821
978.301
978.077
978.023
977.527
977.101
977.178
977.237
977.068
1016.97
1016.78
1016.68
1016.5
1016.13
1016.01
1015.62
1015.19
1014.99
1014.71
1014.33
1014.03
1013.8
1013.52
1013.23
1012.98
1012.74
1012.49
1012.23
1011.99
1011.75
1011.51
1011.26
1011.01
1010.76
1010.5
1010.24
1009.97
1009.69
1009.4
1009.1
1008.8
1008.48
1008.15
1007.81
1007.46
1007.09
1006.7
1006.3
1005.89
1005.45
1005
1004.53
1004.04
1003.53
1003
1002.45
1001.88
1001.28
1000.67
1000.03
999.37
998.689
997.987
997.265
996.523
995.762
994.984
994.19
993.381
992.559
991.726
990.884
990.036
989.183
988.329
987.475
986.624
985.779
984.942
984.115
983.301
982.502
981.72
980.958
980.215
979.495
978.798
978.126
977.478
976.856
976.261
975.692
975.148
974.632
974.141
973.677
973.237
972.823
972.432
972.066
971.722
971.4
971.1
970.821
970.562
970.323
970.102
969.9
969.716
969.549
969.399
969.265
969.146
969.043
968.956
968.882
968.824
968.779
968.747
968.729
968.724
968.732
968.752
968.784
968.828
968.884
968.951
969.029
969.117
969.216
969.326
969.445
969.573
969.712
969.86
970.017
970.183
970.357
970.541
970.732
970.932
971.14
971.357
971.581
971.813
972.052
972.299
972.554
972.816
973.084
973.359
973.641
973.929
974.222
974.522
974.826
975.135
975.447
975.763
976.083
976.404
976.727
977.051
977.375
977.698
978.021
978.341
978.658
978.971
979.28
979.584
979.882
980.172
980.455
980.73
980.996
981.252
981.498
981.733
981.957
982.169
982.37
982.557
982.732
982.895
983.044
983.179
983.301
983.411
983.507
983.589
983.659
983.717
983.761
983.792
983.812
983.818
983.813
983.794
983.763
983.719
983.662
983.59
983.504
983.402
983.284
983.149
982.996
982.825
982.634
982.424
982.193
981.942
981.67
981.38
981.071
980.744
980.402
980.045
979.677
979.3
978.917
978.532
978.147
977.766
977.394
977.033
976.687
976.36
976.056
975.776
975.524
975.302
975.113
974.957
974.836
974.75
974.7
974.686
974.706
974.761
974.849
974.968
975.117
975.292
975.493
975.715
975.957
976.216
976.489
976.772
977.063
977.359
977.658
977.956
978.252
978.542
978.826
979.1
979.363
979.614
979.851
980.073
980.279
980.468
980.64
980.795
980.933
981.054
981.159
981.247
981.321
981.38
981.425
981.458
981.479
981.49
981.49
981.483
981.467
981.444
981.414
981.378
981.335
981.286
981.231
981.17
981.101
981.023
980.939
980.848
980.738
980.616
980.498
980.353
980.166
980.006
979.855
979.587
979.33
979.221
978.961
978.572
978.466
978.374
978.109
978.076
978.186
978.322
1016.45
1016.5
1016.42
1016.09
1016
1015.83
1015.43
1015.21
1014.98
1014.65
1014.38
1014.15
1013.87
1013.59
1013.35
1013.12
1012.87
1012.62
1012.39
1012.15
1011.91
1011.66
1011.42
1011.18
1010.92
1010.66
1010.4
1010.13
1009.85
1009.57
1009.27
1008.96
1008.65
1008.31
1007.97
1007.61
1007.24
1006.86
1006.45
1006.03
1005.59
1005.14
1004.66
1004.16
1003.65
1003.11
1002.55
1001.97
1001.36
1000.73
1000.08
999.411
998.715
997.998
997.259
996.5
995.721
994.925
994.111
993.282
992.44
991.587
990.725
989.856
988.984
988.11
987.237
986.368
985.506
984.653
983.812
982.985
982.175
981.384
980.613
979.864
979.14
978.44
977.766
977.119
976.499
975.906
975.341
974.804
974.293
973.81
973.352
972.921
972.515
972.133
971.775
971.439
971.126
970.834
970.563
970.312
970.08
969.866
969.671
969.493
969.332
969.187
969.058
968.945
968.847
968.764
968.696
968.642
968.601
968.574
968.561
968.561
968.573
968.598
968.636
968.685
968.747
968.82
968.904
968.999
969.106
969.222
969.349
969.485
969.632
969.788
969.953
970.127
970.31
970.502
970.702
970.91
971.126
971.351
971.583
971.823
972.07
972.324
972.586
972.854
973.13
973.411
973.698
973.991
974.29
974.594
974.903
975.215
975.531
975.851
976.174
976.497
976.823
977.149
977.474
977.799
978.122
978.443
978.761
979.075
979.384
979.688
979.985
980.276
980.559
980.833
981.098
981.354
981.599
981.834
982.057
982.269
982.469
982.656
982.83
982.992
983.141
983.276
983.398
983.507
983.602
983.685
983.755
983.812
983.856
983.887
983.906
983.913
983.907
983.888
983.857
983.812
983.754
983.682
983.595
983.492
983.373
983.237
983.082
982.909
982.716
982.502
982.267
982.011
981.735
981.438
981.121
980.786
980.434
980.067
979.689
979.3
978.906
978.508
978.111
977.718
977.334
976.962
976.606
976.269
975.956
975.668
975.409
975.182
974.988
974.828
974.705
974.617
974.567
974.554
974.577
974.635
974.726
974.85
975.004
975.186
975.394
975.624
975.874
976.141
976.422
976.714
977.014
977.319
977.626
977.933
978.237
978.536
978.827
979.109
979.379
979.636
979.879
980.106
980.316
980.51
980.686
980.844
980.984
981.108
981.214
981.304
981.379
981.439
981.486
981.52
981.543
981.555
981.558
981.553
981.54
981.52
981.495
981.463
981.426
981.383
981.335
981.281
981.223
981.156
981.08
980.999
980.913
980.805
980.686
980.58
980.443
980.258
980.122
979.998
979.747
979.534
979.474
979.29
979.024
978.997
979.052
978.999
979.1
979.472
1016.16
1016.17
1016.08
1015.96
1015.83
1015.55
1015.38
1015.21
1014.89
1014.64
1014.45
1014.19
1013.92
1013.7
1013.47
1013.22
1012.99
1012.76
1012.53
1012.29
1012.06
1011.82
1011.58
1011.34
1011.09
1010.84
1010.57
1010.31
1010.03
1009.74
1009.45
1009.14
1008.82
1008.49
1008.15
1007.79
1007.41
1007.02
1006.62
1006.19
1005.75
1005.29
1004.81
1004.3
1003.78
1003.23
1002.66
1002.07
1001.45
1000.81
1000.15
999.461
998.749
998.015
997.258
996.479
995.681
994.863
994.027
993.176
992.311
991.435
990.55
989.658
988.762
987.866
986.972
986.082
985.201
984.33
983.473
982.631
981.808
981.006
980.226
979.471
978.741
978.038
977.363
976.716
976.098
975.509
974.948
974.417
973.913
973.437
972.989
972.566
972.169
971.797
971.448
971.122
970.818
970.536
970.273
970.03
969.806
969.6
969.412
969.24
969.085
968.946
968.823
968.716
968.622
968.544
968.48
968.43
968.394
968.372
968.363
968.368
968.386
968.416
968.46
968.515
968.583
968.662
968.754
968.857
968.971
969.096
969.231
969.377
969.533
969.699
969.873
970.058
970.251
970.453
970.664
970.882
971.109
971.344
971.586
971.836
972.092
972.356
972.626
972.903
973.187
973.476
973.77
974.07
974.375
974.685
974.999
975.317
975.637
975.96
976.286
976.612
976.94
977.268
977.595
977.921
978.245
978.566
978.884
979.197
979.506
979.809
980.106
980.395
980.676
980.949
981.213
981.466
981.71
981.943
982.164
982.374
982.572
982.758
982.931
983.091
983.238
983.372
983.493
983.601
983.696
983.778
983.847
983.903
983.947
983.978
983.996
984.002
983.996
983.976
983.944
983.899
983.839
983.766
983.678
983.574
983.453
983.315
983.158
982.982
982.786
982.569
982.329
982.069
981.786
981.482
981.158
980.815
980.454
980.078
979.688
979.289
978.883
978.474
978.065
977.661
977.266
976.883
976.517
976.171
975.85
975.555
975.289
975.057
974.858
974.695
974.57
974.482
974.432
974.419
974.444
974.505
974.601
974.73
974.89
975.078
975.292
975.53
975.788
976.064
976.354
976.654
976.963
977.278
977.594
977.91
978.223
978.53
978.829
979.118
979.395
979.659
979.907
980.14
980.355
980.554
980.734
980.895
981.039
981.164
981.273
981.365
981.441
981.503
981.552
981.588
981.612
981.628
981.633
981.632
981.622
981.607
981.587
981.562
981.531
981.496
981.457
981.412
981.362
981.309
981.248
981.176
981.103
981.025
980.922
980.814
980.724
980.597
980.431
980.328
980.223
980.022
979.887
979.851
979.747
979.666
979.733
979.844
980.055
980.436
1015.95
1015.9
1015.84
1015.8
1015.63
1015.44
1015.32
1015.09
1014.87
1014.69
1014.45
1014.21
1014
1013.79
1013.55
1013.33
1013.11
1012.89
1012.66
1012.43
1012.21
1011.98
1011.74
1011.5
1011.26
1011.01
1010.75
1010.48
1010.21
1009.92
1009.63
1009.32
1009.01
1008.68
1008.33
1007.97
1007.6
1007.2
1006.8
1006.37
1005.92
1005.45
1004.97
1004.46
1003.92
1003.37
1002.79
1002.18
1001.56
1000.9
1000.22
999.519
998.791
998.038
997.26
996.461
995.64
994.799
993.939
993.063
992.172
991.27
990.358
989.44
988.519
987.598
986.679
985.767
984.863
983.972
983.097
982.238
981.401
980.586
979.796
979.033
978.298
977.592
976.916
976.269
975.654
975.069
974.514
973.989
973.494
973.027
972.588
972.176
971.789
971.427
971.089
970.774
970.48
970.207
969.954
969.72
969.505
969.307
969.126
968.962
968.813
968.68
968.563
968.46
968.372
968.298
968.239
968.193
968.162
968.144
968.14
968.149
968.172
968.208
968.257
968.319
968.393
968.48
968.58
968.691
968.814
968.948
969.093
969.249
969.416
969.592
969.779
969.975
970.18
970.395
970.617
970.849
971.088
971.335
971.589
971.85
972.119
972.394
972.675
972.962
973.255
973.554
973.857
974.166
974.479
974.795
975.115
975.438
975.764
976.092
976.421
976.751
977.081
977.41
977.739
978.065
978.39
978.711
979.028
979.34
979.647
979.948
980.242
980.529
980.808
981.078
981.338
981.589
981.829
982.059
982.277
982.484
982.679
982.862
983.032
983.189
983.334
983.465
983.584
983.69
983.783
983.863
983.931
983.986
984.028
984.058
984.076
984.081
984.073
984.053
984.02
983.973
983.913
983.838
983.748
983.642
983.52
983.379
983.219
983.04
982.84
982.619
982.375
982.109
981.821
981.511
981.18
980.828
980.459
980.074
979.675
979.266
978.849
978.43
978.011
977.597
977.191
976.799
976.424
976.07
975.741
975.439
975.168
974.93
974.728
974.562
974.435
974.346
974.296
974.285
974.312
974.377
974.476
974.61
974.776
974.97
975.191
975.437
975.703
975.987
976.286
976.596
976.914
977.237
977.563
977.888
978.209
978.525
978.832
979.128
979.413
979.683
979.938
980.176
980.396
980.599
980.783
980.948
981.094
981.223
981.334
981.428
981.506
981.571
981.621
981.66
981.688
981.706
981.716
981.718
981.714
981.705
981.691
981.672
981.65
981.623
981.594
981.561
981.522
981.479
981.434
981.38
981.316
981.255
981.188
981.094
981.002
980.933
980.821
980.684
980.616
980.544
980.405
980.339
980.365
980.36
980.405
980.582
980.857
981.269
1015.73
1015.72
1015.68
1015.6
1015.48
1015.39
1015.21
1015.01
1014.87
1014.67
1014.45
1014.26
1014.06
1013.84
1013.64
1013.43
1013.22
1013
1012.79
1012.58
1012.35
1012.13
1011.9
1011.67
1011.42
1011.18
1010.92
1010.66
1010.39
1010.11
1009.82
1009.51
1009.2
1008.87
1008.52
1008.16
1007.79
1007.4
1006.98
1006.55
1006.1
1005.63
1005.14
1004.62
1004.08
1003.52
1002.93
1002.31
1001.67
1001
1000.31
999.587
998.839
998.066
997.267
996.445
995.599
994.732
993.846
992.942
992.023
991.092
990.152
989.204
988.254
987.305
986.359
985.42
984.493
983.579
982.682
981.806
980.953
980.125
979.324
978.552
977.812
977.102
976.425
975.78
975.168
974.588
974.04
973.523
973.037
972.58
972.152
971.751
971.376
971.026
970.7
970.397
970.114
969.852
969.609
969.385
969.179
968.99
968.817
968.66
968.518
968.392
968.28
968.182
968.099
968.03
967.975
967.934
967.906
967.893
967.893
967.907
967.935
967.977
968.031
968.099
968.181
968.275
968.382
968.502
968.634
968.779
968.935
969.102
969.281
969.47
969.669
969.878
970.097
970.326
970.562
970.808
971.061
971.323
971.591
971.866
972.148
972.436
972.73
973.03
973.334
973.644
973.958
974.277
974.599
974.923
975.251
975.581
975.913
976.245
976.579
976.912
977.244
977.576
977.906
978.233
978.557
978.877
979.193
979.503
979.808
980.106
980.397
980.68
980.954
981.22
981.476
981.722
981.958
982.182
982.396
982.597
982.787
982.965
983.131
983.284
983.424
983.552
983.667
983.769
983.859