# vtk DataFile Version 2.0
LBE mesh
ASCII
DATASET STRUCTURED_POINTS
DIMENSIONS 300 100 1
ASPECT_RATIO 1 1 1
ORIGIN 0 0 0
POINT_DATA 30000
SCALARS rho double 1
LOOKUP_TABLE default
1046.93
1015.24
1014.51
1020.97
1019.13
1015.22
1015.01
1015.51
1014.73
1013.93
1013.75
1013.58
1013.2
1012.88
1012.67
1012.45
1012.2
1011.97
1011.76
1011.54
1011.32
1011.11
1010.89
1010.67
1010.45
1010.22
1009.99
1009.75
1009.51
1009.26
1009.01
1008.74
1008.47
1008.19
1007.9
1007.59
1007.28
1006.95
1006.62
1006.26
1005.9
1005.52
1005.12
1004.71
1004.29
1003.85
1003.39
1002.91
1002.42
1001.91
1001.38
1000.84
1000.28
999.697
999.102
998.491
997.864
997.223
996.568
995.901
995.222
994.533
993.835
993.131
992.42
991.706
990.989
990.272
989.557
988.845
988.138
987.438
986.747
986.066
985.397
984.742
984.102
983.478
982.871
982.283
981.713
981.164
980.636
980.129
979.644
979.179
978.738
978.317
977.918
977.541
977.185
976.85
976.535
976.24
975.965
975.709
975.471
975.25
975.047
974.86
974.689
974.533
974.392
974.264
974.15
974.048
973.958
973.879
973.812
973.754
973.706
973.667
973.637
973.614
973.599
973.591
973.589
973.594
973.604
973.619
973.638
973.662
973.69
973.721
973.755
973.791
973.83
973.871
973.914
973.957
974.001
974.046
974.09
974.135
974.178
974.222
974.264
974.305
974.344
974.382
974.417
974.449
974.48
974.507
974.532
974.553
974.572
974.586
974.597
974.604
974.608
974.607
974.602
974.593
974.58
974.563
974.541
974.514
974.483
974.447
974.406
974.361
974.311
974.256
974.196
974.132
974.062
973.987
973.908
973.824
973.737
973.646
973.551
973.454
973.356
973.257
973.158
973.06
972.966
972.875
972.789
972.711
972.641
972.581
972.532
972.497
972.477
972.474
972.488
972.521
972.574
972.647
972.742
972.859
972.998
973.16
973.343
973.547
973.773
974.018
974.282
974.563
974.861
975.173
975.498
975.834
976.181
976.534
976.894
977.258
977.624
977.991
978.357
978.721
979.081
979.437
979.787
980.129
980.464
980.789
981.105
981.41
981.706
981.99
982.262
982.524
982.773
983.011
983.238
983.453
983.657
983.849
984.031
984.202
984.363
984.514
984.656
984.788
984.911
985.025
985.13
985.227
985.316
985.398
985.47
985.535
985.592
985.641
985.682
985.714
985.737
985.752
985.756
985.751
985.735
985.708
985.67
985.62
985.558
985.482
985.393
985.29
985.172
985.04
984.893
984.731
984.553
984.36
984.152
983.928
983.69
983.438
983.171
982.891
982.598
982.293
981.977
981.651
981.314
980.968
980.614
980.248
979.874
979.497
979.105
978.682
978.266
977.858
977.348
976.775
976.361
975.819
974.71
973.938
973.979
971.927
968.062
969.954
970.612
947.327
1029.82
1026.27
1022.18
1016.97
1017.14
1017.3
1016.11
1014.94
1014.7
1014.44
1013.95
1013.55
1013.3
1013.04
1012.75
1012.49
1012.27
1012.03
1011.8
1011.58
1011.36
1011.14
1010.91
1010.69
1010.46
1010.23
1010
1009.76
1009.51
1009.26
1009
1008.74
1008.46
1008.18
1007.88
1007.58
1007.26
1006.93
1006.59
1006.24
1005.87
1005.49
1005.09
1004.68
1004.25
1003.81
1003.35
1002.87
1002.38
1001.86
1001.34
1000.79
1000.23
999.65
999.055
998.444
997.817
997.177
996.523
995.856
995.178
994.491
993.795
993.092
992.383
991.671
990.957
990.242
989.53
988.821
988.117
987.42
986.732
986.054
985.389
984.737
984.1
983.479
982.875
982.29
981.724
981.177
980.652
980.147
979.664
979.202
978.762
978.344
977.947
977.571
977.217
976.883
976.57
976.276
976.002
975.746
975.508
975.289
975.086
974.899
974.728
974.573
974.431
974.303
974.189
974.087
973.997
973.918
973.85
973.792
973.744
973.705
973.674
973.651
973.636
973.627
973.625
973.629
973.639
973.654
973.673
973.697
973.724
973.755
973.789
973.826
973.864
973.905
973.947
973.991
974.035
974.079
974.124
974.169
974.213
974.256
974.298
974.339
974.378
974.416
974.451
974.484
974.515
974.542
974.567
974.588
974.606
974.621
974.632
974.639
974.642
974.641
974.636
974.627
974.614
974.596
974.574
974.547
974.515
974.479
974.438
974.392
974.342
974.287
974.227
974.162
974.092
974.018
973.939
973.856
973.769
973.678
973.584
973.488
973.39
973.292
973.193
973.096
973.001
972.911
972.825
972.747
972.676
972.616
972.567
972.531
972.51
972.505
972.518
972.548
972.599
972.671
972.763
972.878
973.014
973.173
973.353
973.554
973.777
974.019
974.28
974.558
974.853
975.162
975.485
975.819
976.163
976.514
976.872
977.234
977.599
977.964
978.33
978.693
979.052
979.407
979.757
980.099
980.433
980.758
981.074
981.38
981.675
981.96
982.233
982.495
982.745
982.984
983.211
983.427
983.631
983.825
984.007
984.179
984.341
984.493
984.635
984.767
984.891
985.005
985.111
985.209
985.298
985.38
985.453
985.518
985.576
985.625
985.666
985.698
985.722
985.737
985.742
985.737
985.722
985.696
985.659
985.61
985.548
985.474
985.386
985.284
985.168
985.037
984.891
984.73
984.554
984.362
984.155
983.932
983.695
983.443
983.177
982.898
982.605
982.299
981.982
981.654
981.316
980.967
980.608
980.241
979.863
979.471
979.073
978.663
978.219
977.751
977.299
976.779
976.121
975.511
974.96
973.887
972.522
971.914
970.67
966.454
962.574
960.478
1021.72
1026.53
1021.85
1017.54
1017.78
1017.49
1016.1
1015.14
1014.94
1014.58
1014.05
1013.66
1013.41
1013.13
1012.83
1012.57
1012.33
1012.09
1011.85
1011.62
1011.4
1011.17
1010.95
1010.72
1010.49
1010.25
1010.02
1009.78
1009.53
1009.27
1009.01
1008.74
1008.46
1008.18
1007.88
1007.57
1007.25
1006.92
1006.58
1006.22
1005.85
1005.47
1005.07
1004.66
1004.23
1003.78
1003.32
1002.84
1002.35
1001.84
1001.31
1000.76
1000.2
999.615
999.018
998.406
997.779
997.138
996.483
995.815
995.137
994.449
993.753
993.049
992.341
991.629
990.915
990.202
989.49
988.782
988.079
987.384
986.697
986.021
985.358
984.708
984.072
983.454
982.853
982.27
981.706
981.163
980.64
980.138
979.657
979.198
978.76
978.344
977.95
977.576
977.224
976.892
976.58
976.289
976.016
975.762
975.526
975.307
975.106
974.921
974.75
974.596
974.455
974.328
974.214
974.113
974.024
973.945
973.878
973.82
973.773
973.734
973.703
973.68
973.665
973.657
973.655
973.659
973.669
973.684
973.704
973.728
973.755
973.787
973.821
973.858
973.897
973.938
973.98
974.024
974.068
974.114
974.159
974.204
974.248
974.292
974.335
974.376
974.415
974.453
974.489
974.523
974.553
974.581
974.606
974.628
974.646
974.661
974.672
974.679
974.682
974.681
974.676
974.667
974.653
974.635
974.613
974.586
974.554
974.518
974.477
974.431
974.381
974.325
974.265
974.2
974.131
974.056
973.977
973.894
973.807
973.716
973.622
973.525
973.427
973.328
973.229
973.131
973.036
972.944
972.857
972.777
972.705
972.642
972.591
972.553
972.529
972.522
972.531
972.559
972.607
972.675
972.765
972.876
973.01
973.166
973.343
973.543
973.763
974.003
974.262
974.539
974.832
975.14
975.462
975.795
976.138
976.489
976.847
977.208
977.573
977.939
978.304
978.668
979.028
979.383
979.732
980.075
980.41
980.736
981.053
981.359
981.655
981.94
982.214
982.477
982.728
982.967
983.195
983.411
983.616
983.81
983.993
984.166
984.328
984.48
984.622
984.755
984.879
984.994
985.1
985.198
985.288
985.369
985.443
985.509
985.567
985.616
985.658
985.691
985.716
985.731
985.737
985.734
985.72
985.695
985.66
985.612
985.552
985.479
985.393
985.292
985.178
985.049
984.904
984.745
984.57
984.379
984.174
983.952
983.716
983.464
983.199
982.919
982.625
982.319
982.001
981.671
981.332
980.98
980.617
980.247
979.869
979.471
979.06
978.655
978.218
977.716
977.245
976.802
976.12
975.323
974.945
974.236
972.241
971.336
972.075
967.704
962.027
965.839
1021.44
1020.17
1019.63
1020.81
1018.3
1016.19
1016.14
1016.06
1015.14
1014.43
1014.2
1013.93
1013.52
1013.18
1012.93
1012.68
1012.41
1012.16
1011.92
1011.69
1011.46
1011.22
1011
1010.76
1010.53
1010.29
1010.05
1009.81
1009.56
1009.3
1009.04
1008.77
1008.49
1008.2
1007.9
1007.59
1007.27
1006.93
1006.59
1006.23
1005.86
1005.47
1005.07
1004.66
1004.23
1003.78
1003.31
1002.83
1002.34
1001.82
1001.29
1000.74
1000.17
999.59
998.99
998.375
997.745
997.101
996.443
995.773
995.092
994.401
993.702
992.997
992.286
991.572
990.856
990.141
989.428
988.719
988.016
987.32
986.633
985.957
985.295
984.646
984.012
983.395
982.796
982.215
981.654
981.113
980.592
980.093
979.615
979.159
978.724
978.311
977.92
977.55
977.201
976.872
976.563
976.274
976.004
975.753
975.52
975.303
975.104
974.921
974.753
974.6
974.462
974.336
974.224
974.124
974.036
973.959
973.893
973.837
973.79
973.752
973.722
973.7
973.686
973.679
973.678
973.683
973.693
973.709
973.729
973.754
973.782
973.814
973.849
973.886
973.926
973.967
974.011
974.055
974.1
974.146
974.192
974.238
974.283
974.327
974.37
974.413
974.453
974.491
974.528
974.561
974.593
974.621
974.647
974.669
974.688
974.703
974.714
974.722
974.725
974.724
974.72
974.711
974.697
974.679
974.657
974.63
974.598
974.561
974.521
974.475
974.425
974.369
974.309
974.244
974.174
974.099
974.02
973.936
973.848
973.757
973.662
973.565
973.465
973.365
973.264
973.164
973.066
972.972
972.882
972.799
972.723
972.657
972.603
972.561
972.533
972.521
972.527
972.551
972.595
972.66
972.747
972.855
972.986
973.14
973.315
973.513
973.732
973.971
974.23
974.506
974.799
975.108
975.43
975.764
976.107
976.459
976.818
977.181
977.547
977.914
978.281
978.645
979.007
979.363
979.714
980.058
980.394
980.721
981.039
981.347
981.644
981.93
982.204
982.468
982.719
982.959
983.188
983.404
983.61
983.804
983.987
984.16
984.323
984.475
984.617
984.751
984.875
984.99
985.096
985.194
985.284
985.366
985.44
985.507
985.565
985.615
985.658
985.692
985.718
985.734
985.742
985.74
985.727
985.705
985.671
985.625
985.567
985.496
985.412
985.314
985.202
985.075
984.932
984.774
984.601
984.412
984.207
983.987
983.751
983.5
983.235
982.955
982.661
982.354
982.035
981.704
981.361
981.009
980.647
980.271
979.888
979.499
979.089
978.654
978.232
977.792
977.251
976.711
976.276
975.6
974.605
974.069
973.581
971.603
969.846
969.775
968.632
966.501
1021.44
1019.25
1019.18
1019.06
1017.58
1017.16
1016.59
1015.73
1015.12
1014.82
1014.44
1013.98
1013.62
1013.35
1013.07
1012.77
1012.51
1012.26
1012.02
1011.77
1011.54
1011.3
1011.07
1010.83
1010.6
1010.36
1010.11
1009.87
1009.61
1009.35
1009.09
1008.81
1008.53
1008.24
1007.94
1007.63
1007.3
1006.97
1006.62
1006.26
1005.89
1005.5
1005.09
1004.68
1004.24
1003.79
1003.32
1002.84
1002.34
1001.82
1001.28
1000.73
1000.16
999.571
998.967
998.347
997.712
997.063
996.4
995.725
995.038
994.343
993.638
992.928
992.212
991.494
990.774
990.054
989.338
988.625
987.919
987.221
986.532
985.856
985.192
984.543
983.909
983.294
982.696
982.117
981.558
981.02
980.502
980.006
979.532
979.08
978.65
978.241
977.854
977.488
977.143
976.818
976.514
976.229
975.963
975.716
975.486
975.274
975.078
974.898
974.734
974.584
974.448
974.326
974.216
974.119
974.033
973.958
973.894
973.84
973.795
973.759
973.731
973.71
973.697
973.691
973.692
973.698
973.71
973.726
973.748
973.773
973.802
973.835
973.871
973.909
973.95
973.992
974.036
974.081
974.128
974.174
974.221
974.268
974.314
974.359
974.403
974.446
974.487
974.526
974.564
974.598
974.63
974.66
974.686
974.709
974.728
974.744
974.756
974.764
974.768
974.768
974.764
974.755
974.742
974.725
974.702
974.676
974.644
974.608
974.567
974.521
974.471
974.415
974.354
974.289
974.219
974.144
974.064
973.979
973.891
973.798
973.701
973.602
973.501
973.398
973.294
973.191
973.09
972.992
972.898
972.81
972.73
972.66
972.601
972.554
972.522
972.505
972.506
972.526
972.567
972.628
972.711
972.817
972.946
973.097
973.272
973.468
973.687
973.926
974.185
974.462
974.757
975.067
975.39
975.726
976.072
976.426
976.787
977.152
977.521
977.89
978.259
978.626
978.989
979.348
979.701
980.046
980.384
980.713
981.032
981.341
981.639
981.926
982.201
982.466
982.718
982.958
983.187
983.404
983.61
983.805
983.988
984.161
984.324
984.476
984.619
984.752
984.876
984.991
985.098
985.196
985.287
985.369
985.444
985.511
985.57
985.621
985.665
985.701
985.727
985.745
985.755
985.755
985.745
985.724
985.692
985.649
985.593
985.525
985.443
985.348
985.238
985.113
984.973
984.818
984.646
984.458
984.255
984.036
983.801
983.551
983.285
983.005
982.711
982.404
982.085
981.754
981.411
981.057
980.696
980.323
979.935
979.544
979.15
978.72
978.272
977.858
977.391
976.787
976.28
975.876
974.988
973.961
973.787
972.904
970.571
970.107
969.897
967.711
1019.34
1019.36
1018.94
1017.46
1017.59
1017.44
1016.26
1015.63
1015.46
1015.04
1014.45
1014.09
1013.84
1013.51
1013.17
1012.9
1012.65
1012.39
1012.13
1011.89
1011.65
1011.41
1011.17
1010.93
1010.69
1010.45
1010.2
1009.95
1009.69
1009.43
1009.16
1008.89
1008.6
1008.31
1008
1007.69
1007.36
1007.03
1006.68
1006.31
1005.94
1005.54
1005.14
1004.72
1004.28
1003.82
1003.35
1002.86
1002.36
1001.83
1001.29
1000.73
1000.15
999.56
998.949
998.322
997.679
997.022
996.352
995.668
994.974
994.27
993.558
992.84
992.117
991.39
990.663
989.938
989.215
988.497
987.786
987.084
986.392
985.712
985.046
984.396
983.762
983.147
982.55
981.973
981.416
980.88
980.367
979.875
979.405
978.957
978.532
978.128
977.747
977.387
977.047
976.728
976.429
976.15
975.89
975.648
975.423
975.216
975.025
974.85
974.69
974.545
974.413
974.295
974.189
974.095
974.013
973.942
973.88
973.829
973.787
973.753
973.727
973.709
973.698
973.694
973.696
973.704
973.717
973.735
973.758
973.785
973.815
973.849
973.886
973.925
973.967
974.01
974.055
974.101
974.148
974.195
974.243
974.29
974.337
974.383
974.428
974.472
974.514
974.554
974.592
974.628
974.661
974.692
974.719
974.743
974.763
974.78
974.793
974.802
974.807
974.808
974.804
974.796
974.784
974.767
974.745
974.719
974.688
974.652
974.612
974.566
974.515
974.46
974.399
974.333
974.262
974.187
974.105
974.02
973.93
973.835
973.737
973.635
973.531
973.425
973.317
973.21
973.105
973.002
972.903
972.811
972.726
972.65
972.585
972.533
972.496
972.474
972.471
972.487
972.523
972.581
972.662
972.765
972.892
973.042
973.216
973.413
973.632
973.872
974.132
974.412
974.708
975.021
975.347
975.686
976.034
976.392
976.755
977.124
977.495
977.867
978.239
978.609
978.975
979.336
979.691
980.039
980.378
980.709
981.03
981.34
981.639
981.927
982.204
982.469
982.722
982.963
983.192
983.409
983.616
983.81
983.994
984.167
984.329
984.482
984.624
984.758
984.882
984.997
985.104
985.203
985.294
985.377
985.452
985.52
985.58
985.633
985.678
985.715
985.743
985.764
985.775
985.778
985.77
985.752
985.723
985.682
985.63
985.564
985.486
985.393
985.286
985.164
985.026
984.873
984.703
984.518
984.316
984.099
983.865
983.616
983.351
983.071
982.778
982.471
982.152
981.821
981.48
981.127
980.764
980.396
980.018
979.621
979.224
978.833
978.395
977.924
977.519
977.071
976.409
975.856
975.53
974.655
973.488
973.169
972.59
971.066
969.944
969.461
1018.29
1018.68
1018.2
1017.55
1017.36
1016.62
1016.25
1016
1015.43
1014.91
1014.62
1014.33
1013.94
1013.6
1013.33
1013.07
1012.79
1012.52
1012.27
1012.03
1011.78
1011.53
1011.29
1011.05
1010.81
1010.56
1010.31
1010.06
1009.8
1009.54
1009.27
1008.99
1008.7
1008.4
1008.1
1007.78
1007.45
1007.11
1006.76
1006.39
1006.01
1005.62
1005.21
1004.78
1004.34
1003.88
1003.4
1002.9
1002.39
1001.86
1001.31
1000.74
1000.16
999.556
998.935
998.299
997.646
996.979
996.298
995.604
994.899
994.184
993.461
992.732
991.998
991.262
990.525
989.791
989.059
988.333
987.615
986.907
986.21
985.526
984.857
984.204
983.569
982.953
982.357
981.781
981.227
980.694
980.184
979.697
979.232
978.79
978.371
977.973
977.598
977.245
976.912
976.6
976.308
976.036
975.783
975.548
975.33
975.129
974.945
974.776
974.622
974.482
974.356
974.242
974.142
974.053
973.975
973.908
973.85
973.803
973.764
973.733
973.711
973.696
973.687
973.686
973.69
973.7
973.715
973.735
973.759
973.787
973.819
973.854
973.892
973.932
973.974
974.018
974.064
974.111
974.158
974.206
974.254
974.302
974.35
974.397
974.442
974.486
974.529
974.57
974.609
974.646
974.68
974.711
974.74
974.765
974.786
974.805
974.819
974.829
974.835
974.838
974.835
974.829
974.817
974.801
974.781
974.755
974.725
974.69
974.65
974.605
974.554
974.499
974.438
974.372
974.3
974.224
974.142
974.054
973.962
973.866
973.765
973.66
973.553
973.443
973.332
973.22
973.11
973.002
972.898
972.8
972.71
972.628
972.558
972.5
972.458
972.432
972.424
972.436
972.469
972.524
972.602
972.703
972.829
972.98
973.153
973.351
973.571
973.813
974.076
974.358
974.658
974.973
975.303
975.645
975.998
976.358
976.726
977.098
977.472
977.848
978.223
978.595
978.964
979.328
979.685
980.035
980.377
980.709
981.031
981.343
981.643
981.932
982.21
982.476
982.729
982.971
983.2
983.418
983.624
983.819
984.003
984.176
984.339
984.491
984.634
984.767
984.892
985.007
985.115
985.214
985.306
985.389
985.466
985.534
985.596
985.65
985.697
985.736
985.766
985.789
985.802
985.807
985.802
985.788
985.762
985.724
985.675
985.613
985.538
985.448
985.345
985.226
985.091
984.94
984.774
984.59
984.391
984.175
983.943
983.695
983.432
983.153
982.861
982.556
982.238
981.908
981.568
981.221
980.861
980.493
980.124
979.744
979.343
978.951
978.567
978.117
977.648
977.273
976.802
976.109
975.646
975.29
974.309
973.448
973.104
972.143
971.095
970.485
1018.02
1017.71
1017.48
1017.6
1016.96
1016.38
1016.28
1015.85
1015.34
1015.04
1014.76
1014.37
1014.03
1013.76
1013.49
1013.19
1012.92
1012.67
1012.42
1012.17
1011.92
1011.68
1011.44
1011.19
1010.95
1010.7
1010.45
1010.19
1009.93
1009.67
1009.39
1009.11
1008.82
1008.52
1008.22
1007.9
1007.56
1007.22
1006.86
1006.49
1006.11
1005.71
1005.3
1004.86
1004.41
1003.95
1003.47
1002.96
1002.44
1001.9
1001.34
1000.77
1000.17
999.558
998.926
998.278
997.613
996.933
996.238
995.531
994.812
994.084
993.347
992.605
991.858
991.109
990.36
989.613
988.871
988.135
987.408
986.691
985.987
985.298
984.624
983.968
983.331
982.714
982.118
981.543
980.991
980.463
979.957
979.474
979.015
978.58
978.167
977.777
977.41
977.064
976.739
976.436
976.152
975.888
975.643
975.416
975.206
975.013
974.837
974.675
974.529
974.395
974.276
974.169
974.075
973.991
973.919
973.857
973.804
973.761
973.727
973.7
973.681
973.67
973.665
973.666
973.673
973.685
973.703
973.725
973.75
973.78
973.813
973.849
973.888
973.929
973.972
974.016
974.062
974.109
974.157
974.205
974.253
974.301
974.349
974.396
974.442
974.487
974.53
974.571
974.611
974.648
974.682
974.715
974.744
974.77
974.793
974.812
974.828
974.84
974.848
974.851
974.851
974.846
974.836
974.822
974.803
974.779
974.75
974.716
974.677
974.632
974.583
974.527
974.467
974.4
974.328
974.251
974.168
974.079
973.985
973.887
973.783
973.676
973.565
973.451
973.336
973.22
973.105
972.992
972.883
972.779
972.684
972.597
972.521
972.459
972.411
972.381
972.369
972.378
972.408
972.461
972.537
972.638
972.764
972.914
973.089
973.288
973.51
973.755
974.021
974.306
974.609
974.928
975.262
975.608
975.964
976.329
976.7
977.076
977.454
977.833
978.211
978.586
978.958
979.324
979.683
980.035
980.379
980.712
981.036
981.349
981.65
981.94
982.219
982.485
982.739
982.98
983.21
983.428
983.635
983.83
984.014
984.187
984.349
984.502
984.645
984.779
984.903
985.02
985.128
985.228
985.32
985.405
985.482
985.553
985.616
985.672
985.72
985.761
985.794
985.819
985.836
985.843
985.841
985.83
985.807
985.773
985.728
985.67
985.598
985.512
985.412
985.297
985.166
985.018
984.855
984.674
984.478
984.264
984.034
983.789
983.527
983.251
982.961
982.657
982.343
982.017
981.68
981.336
980.986
980.624
980.255
979.893
979.519
979.116
978.735
978.373
977.922
977.445
977.111
976.664
975.951
975.493
975.162
974.338
973.481
973.024
972.402
971.265
1017.56
1017.35
1017.22
1017.03
1016.63
1016.49
1016.08
1015.63
1015.42
1015.12
1014.72
1014.41
1014.17
1013.88
1013.58
1013.32
1013.07
1012.82
1012.56
1012.32
1012.08
1011.83
1011.59
1011.35
1011.1
1010.85
1010.6
1010.35
1010.08
1009.82
1009.54
1009.26
1008.97
1008.67
1008.36
1008.03
1007.7
1007.35
1006.99
1006.62
1006.23
1005.83
1005.41
1004.97
1004.51
1004.04
1003.55
1003.04
1002.51
1001.96
1001.39
1000.8
1000.19
999.567
998.922
998.259
997.58
996.884
996.174
995.451
994.716
993.971
993.218
992.459
991.696
990.931
990.167
989.406
988.651
987.903
987.164
986.438
985.726
985.029
984.35
983.689
983.049
982.431
981.834
981.261
980.712
980.187
979.686
979.209
978.756
978.328
977.923
977.542
977.183
976.846
976.531
976.237
975.963
975.708
975.473
975.255
975.055
974.871
974.703
974.55
974.411
974.286
974.175
974.075
973.988
973.911
973.846
973.789
973.743
973.705
973.676
973.654
973.639
973.632
973.631
973.636
973.646
973.661
973.68
973.704
973.732
973.763
973.798
973.835
973.874
973.916
973.959
974.003
974.049
974.096
974.143
974.191
974.238
974.286
974.333
974.379
974.425
974.469
974.512
974.553
974.592
974.629
974.664
974.697
974.727
974.754
974.778
974.798
974.815
974.828
974.838
974.843
974.845
974.842
974.834
974.822
974.805
974.783
974.756
974.724
974.686
974.643
974.594
974.54
974.48
974.414
974.342
974.264
974.18
974.09
973.995
973.895
973.789
973.679
973.565
973.448
973.329
973.209
973.09
972.972
972.859
972.75
972.65
972.558
972.478
972.412
972.36
972.327
972.312
972.318
972.346
972.398
972.473
972.574
972.701
972.852
973.029
973.23
973.455
973.702
973.971
974.26
974.567
974.89
975.228
975.578
975.938
976.306
976.681
977.06
977.442
977.823
978.204
978.583
978.956
979.324
979.686
980.039
980.384
980.718
981.043
981.357
981.659
981.949
982.228
982.494
982.749
982.99
983.22
983.438
983.645
983.84
984.024
984.197
984.36
984.513
984.656
984.79
984.916
985.032
985.141
985.243
985.336
985.422
985.501
985.573
985.638
985.697
985.747
985.791
985.826
985.854
985.874
985.884
985.886
985.878
985.859
985.829
985.788
985.733
985.665
985.584
985.488
985.377
985.249
985.106
984.946
984.769
984.576
984.366
984.139
983.896
983.638
983.365
983.078
982.778
982.467
982.147
981.817
981.477
981.134
980.788
980.43
980.068
979.719
979.356
978.962
978.604
978.263
977.816
977.375
977.069
976.606
975.985
975.577
975.127
974.408
973.806
973.198
972.272
1017.03
1017.06
1016.96
1016.61
1016.49
1016.31
1015.89
1015.65
1015.4
1015.05
1014.76
1014.52
1014.24
1013.95
1013.7
1013.45
1013.2
1012.94
1012.71
1012.47
1012.23
1011.98
1011.75
1011.51
1011.26
1011.02
1010.76
1010.51
1010.25
1009.98
1009.71
1009.42
1009.13
1008.83
1008.52
1008.19
1007.86
1007.51
1007.14
1006.77
1006.37
1005.96
1005.54
1005.09
1004.63
1004.15
1003.65
1003.13
1002.59
1002.03
1001.45
1000.85
1000.22
999.584
998.923
998.244
997.547
996.834
996.106
995.364
994.61
993.846
993.073
992.295
991.514
990.731
989.949
989.172
988.401
987.638
986.887
986.149
985.426
984.721
984.035
983.37
982.726
982.106
981.509
980.938
980.391
979.87
979.374
978.904
978.458
978.038
977.642
977.27
976.921
976.594
976.29
976.006
975.743
975.499
975.274
975.067
974.877
974.703
974.545
974.402
974.272
974.156
974.053
973.962
973.883
973.814
973.756
973.706
973.667
973.635
973.612
973.595
973.586
973.583
973.587
973.595
973.608
973.627
973.649
973.675
973.705
973.738
973.774
973.811
973.851
973.893
973.936
973.98
974.025
974.072
974.117
974.164
974.21
974.256
974.301
974.346
974.39
974.433
974.474
974.514
974.552
974.589
974.623
974.655
974.685
974.712
974.737
974.758
974.776
974.79
974.802
974.809
974.812
974.811
974.806
974.796
974.782
974.763
974.738
974.708
974.673
974.632
974.585
974.533
974.474
974.409
974.338
974.26
974.176
974.086
973.99
973.889
973.782
973.669
973.553
973.434
973.312
973.189
973.066
972.945
972.828
972.716
972.612
972.517
972.433
972.364
972.31
972.273
972.257
972.261
972.289
972.34
972.416
972.518
972.645
972.798
972.977
973.181
973.409
973.66
973.932
974.225
974.536
974.863
975.204
975.558
975.921
976.293
976.671
977.053
977.437
977.822
978.206
978.585
978.961
979.33
979.693
980.047
980.393
980.728
981.053
981.366
981.669
981.959
982.238
982.504
982.757
982.999
983.229
983.447
983.653
983.848
984.032
984.205
984.368
984.521
984.665
984.8
984.927
985.044
985.154
985.257
985.352
985.44
985.521
985.595
985.663
985.723
985.776
985.823
985.861
985.892
985.916
985.93
985.935
985.931
985.916
985.89
985.852
985.803
985.739
985.663
985.571
985.464
985.341
985.202
985.046
984.874
984.685
984.479
984.256
984.017
983.763
983.494
983.212
982.918
982.613
982.298
981.977
981.648
981.312
980.976
980.641
980.293
979.945
979.62
979.276
978.896
978.57
978.263
977.833
977.426
977.151
976.726
976.164
975.769
975.35
974.713
974.085
973.333
1016.73
1016.72
1016.61
1016.47
1016.32
1016.02
1015.83
1015.64
1015.3
1015.04
1014.83
1014.55
1014.27
1014.04
1013.81
1013.55
1013.31
1013.08
1012.84
1012.61
1012.37
1012.14
1011.9
1011.67
1011.43
1011.18
1010.93
1010.68
1010.42
1010.15
1009.88
1009.6
1009.3
1009
1008.69
1008.36
1008.03
1007.67
1007.31
1006.93
1006.53
1006.11
1005.68
1005.23
1004.76
1004.27
1003.77
1003.23
1002.68
1002.11
1001.52
1000.9
1000.26
999.607
998.929
998.232
997.516
996.783
996.034
995.27
994.495
993.708
992.914
992.115
991.312
990.508
989.707
988.91
988.121
987.342
986.576
985.824
985.09
984.375
983.681
983.01
982.362
981.74
981.144
980.573
980.03
979.513
979.023
978.56
978.123
977.711
977.326
976.964
976.626
976.311
976.018
975.746
975.495
975.263
975.049
974.854
974.675
974.513
974.365
974.233
974.114
974.008
973.914
973.832
973.762
973.701
973.651
973.61
973.577
973.553
973.536
973.526
973.522
973.525
973.533
973.546
973.563
973.585
973.61
973.639
973.671
973.705
973.742
973.78
973.82
973.862
973.904
973.948
973.992
974.036
974.081
974.125
974.169
974.212
974.255
974.298
974.339
974.379
974.418
974.456
974.491
974.526
974.558
974.589
974.618
974.644
974.668
974.689
974.707
974.723
974.735
974.743
974.749
974.75
974.747
974.74
974.728
974.712
974.691
974.664
974.632
974.594
974.55
974.5
974.444
974.381
974.312
974.236
974.153
974.063
973.968
973.866
973.759
973.646
973.529
973.408
973.284
973.16
973.035
972.912
972.793
972.679
972.573
972.476
972.391
972.319
972.264
972.227
972.21
972.215
972.243
972.295
972.372
972.475
972.605
972.76
972.942
973.149
973.38
973.634
973.91
974.206
974.52
974.851
975.195
975.552
975.919
976.294
976.674
977.058
977.444
977.831
978.215
978.596
978.973
979.343
979.706
980.06
980.405
980.74
981.065
981.378
981.68
981.969
982.247
982.512
982.765
983.006
983.235
983.452
983.658
983.852
984.036
984.209
984.372
984.526
984.671
984.806
984.933
985.053
985.164
985.269
985.366
985.456
985.54
985.616
985.687
985.75
985.806
985.856
985.898
985.932
985.959
985.977
985.986
985.986
985.976
985.954
985.921
985.876
985.818
985.746
985.659
985.557
985.44
985.306
985.155
984.987
984.803
984.602
984.384
984.151
983.903
983.64
983.364
983.077
982.781
982.474
982.161
981.846
981.524
981.198
980.878
980.561
980.231
979.908
979.613
979.294
978.947
978.662
978.379
977.997
977.651
977.374
976.98
976.541
976.137
975.668
975.162
974.4
1016.51
1016.44
1016.36
1016.3
1016.11
1015.9
1015.76
1015.51
1015.27
1015.07
1014.82
1014.57
1014.35
1014.12
1013.88
1013.64
1013.43
1013.2
1012.97
1012.74
1012.52
1012.29
1012.06
1011.83
1011.59
1011.35
1011.1
1010.85
1010.6
1010.33
1010.06
1009.78
1009.49
1009.18
1008.87
1008.55
1008.21
1007.85
1007.48
1007.1
1006.7
1006.28
1005.84
1005.39
1004.91
1004.41
1003.89
1003.35
1002.79
1002.2
1001.6
1000.97
1000.31
999.637
998.94
998.222
997.485
996.729
995.958
995.171
994.37
993.56
992.741
991.917
991.09
990.263
989.439
988.621
987.811
987.013
986.23
985.464
984.717
983.991
983.288
982.611
981.959
981.334
980.738
980.169
979.629
979.118
978.635
978.18
977.752
977.351
976.976
976.626
976.301
975.998
975.718
975.459
975.22
975.001
974.801
974.618
974.452
974.301
974.166
974.045
973.937
973.842
973.759
973.687
973.626
973.575
973.534
973.501
973.476
973.46
973.45
973.447
973.449
973.458
973.471
973.489
973.511
973.536
973.565
973.596
973.63
973.666
973.704
973.743
973.784
973.825
973.866
973.908
973.951
973.993
974.035
974.076
974.117
974.157
974.196
974.235
974.272
974.308
974.344
974.378
974.41
974.441
974.47
974.498
974.524
974.548
974.57
974.59
974.608
974.623
974.636
974.645
974.652
974.655
974.654
974.65
974.641
974.628
974.61
974.587
974.559
974.525
974.485
974.439
974.386
974.327
974.261
974.188
974.107
974.021
973.927
973.827
973.721
973.609
973.492
973.372
973.249
973.124
972.999
972.876
972.757
972.643
972.536
972.439
972.354
972.283
972.229
972.193
972.177
972.182
972.212
972.266
972.346
972.452
972.584
972.742
972.927
973.137
973.371
973.629
973.908
974.207
974.524
974.858
975.205
975.564
975.933
976.31
976.692
977.078
977.465
977.852
978.236
978.617
978.993
979.363
979.725
980.079
980.423
980.756
981.079
981.391
981.691
981.979
982.255
982.519
982.771
983.01
983.238
983.454
983.659
983.852
984.036
984.209
984.371
984.526
984.671
984.807
984.935
985.056
985.17
985.276
985.376
985.468
985.555
985.635
985.708
985.775
985.835
985.888
985.934
985.972
986.003
986.025
986.039
986.043
986.037
986.021
985.993
985.953
985.9
985.833
985.752
985.655
985.543
985.415
985.27
985.108
984.93
984.735
984.524
984.298
984.056
983.802
983.534
983.256
982.969
982.674
982.373
982.069
981.766
981.46
981.151
980.855
980.566
980.262
979.973
979.718
979.434
979.129
978.89
978.646
978.317
978.027
977.778
977.437
977.043
976.664
976.258
975.549
1016.28
1016.25
1016.19
1016.09
1015.95
1015.84
1015.64
1015.42
1015.26
1015.05
1014.81
1014.61
1014.4
1014.17
1013.95
1013.75
1013.53
1013.31
1013.09
1012.88
1012.65
1012.43
1012.21
1011.98
1011.75
1011.52
1011.28
1011.03
1010.78
1010.51
1010.24
1009.96
1009.67
1009.37
1009.06
1008.74
1008.4
1008.04
1007.67
1007.28
1006.88
1006.46
1006.02
1005.55
1005.07
1004.56
1004.03
1003.48
1002.91
1002.31
1001.68
1001.04
1000.37
999.672
998.955
998.215
997.455
996.675
995.878
995.065
994.238
993.4
992.553
991.702
990.848
989.994
989.145
988.302
987.471
986.652
985.85
985.067
984.305
983.568
982.856
982.171
981.515
980.888
980.292
979.726
979.19
978.685
978.21
977.764
977.347
976.957
976.595
976.258
975.946
975.657
975.391
975.146
974.922
974.717
974.531
974.362
974.209
974.071
973.949
973.84
973.745
973.661
973.589
973.529
973.478
973.437
973.405
973.381
973.365
973.357
973.355
973.359
973.369
973.383
973.402
973.425
973.452
973.482
973.514
973.548
973.585
973.623
973.662
973.702
973.742
973.783
973.823
973.863
973.904
973.943
973.981
974.019
974.056
974.092
974.127
974.16
974.192
974.224
974.254
974.282
974.31
974.336
974.36
974.384
974.406
974.427
974.446
974.463
974.479
974.492
974.504
974.514
974.521
974.525
974.526
974.524
974.518
974.508
974.494
974.476
974.452
974.423
974.388
974.346
974.298
974.244
974.182
974.114
974.038
973.956
973.866
973.769
973.667
973.558
973.444
973.327
973.206