# vtk DataFile Version 2.0
LBE mesh
ASCII
DATASET STRUCTURED_POINTS
DIMENSIONS 300 100 1
ASPECT_RATIO 1 1 1
ORIGIN 0 0 0
POINT_DATA 30000
SCALARS rho double 1
LOOKUP_TABLE default
1046.92
1015.23
1014.51
1020.98
1019.13
1015.22
1015.01
1015.51
1014.72
1013.91
1013.73
1013.54
1013.15
1012.82
1012.6
1012.36
1012.09
1011.84
1011.61
1011.37
1011.12
1010.88
1010.63
1010.38
1010.12
1009.86
1009.59
1009.31
1009.02
1008.72
1008.42
1008.1
1007.77
1007.42
1007.07
1006.7
1006.32
1005.92
1005.51
1005.08
1004.64
1004.18
1003.7
1003.21
1002.7
1002.16
1001.61
1001.05
1000.46
999.851
999.225
998.58
997.916
997.234
996.534
995.818
995.085
994.336
993.574
992.798
992.011
991.213
990.407
989.595
988.777
987.956
987.135
986.314
985.497
984.685
983.881
983.086
982.302
981.531
980.775
980.036
979.316
978.615
977.935
977.278
976.643
976.032
975.445
974.884
974.347
973.837
973.352
972.893
972.459
972.05
971.666
971.307
970.971
970.659
970.37
970.104
969.859
969.635
969.432
969.248
969.084
968.938
968.81
968.699
968.605
968.526
968.464
968.416
968.383
968.364
968.358
968.365
968.385
968.417
968.46
968.515
968.58
968.657
968.744
968.84
968.947
969.063
969.189
969.324
969.468
969.621
969.782
969.952
970.131
970.318
970.513
970.717
970.929
971.15
971.379
971.616
971.861
972.115
972.377
972.648
972.926
973.213
973.508
973.81
974.12
974.438
974.762
975.094
975.432
975.775
976.125
976.479
976.838
977.2
977.565
977.932
978.301
978.671
979.04
979.409
979.775
980.139
980.499
980.854
981.205
981.549
981.886
982.215
982.535
982.846
983.148
983.438
983.718
983.986
984.242
984.486
984.716
984.934
985.138
985.329
985.506
985.669
985.819
985.955
986.078
986.186
986.281
986.362
986.429
986.482
986.521
986.545
986.554
986.548
986.526
986.488
986.433
986.361
986.271
986.163
986.036
985.89
985.726
985.542
985.34
985.118
984.88
984.624
984.352
984.065
983.764
983.451
983.129
982.799
982.463
982.124
981.784
981.446
981.113
980.787
980.471
980.169
979.882
979.612
979.363
979.136
978.933
978.756
978.605
978.483
978.389
978.323
978.287
978.278
978.297
978.344
978.415
978.51
978.628
978.766
978.922
979.094
979.279
979.476
979.682
979.894
980.11
980.327
980.544
980.759
980.968
981.171
981.365
981.549
981.723
981.884
982.032
982.166
982.286
982.39
982.48
982.554
982.613
982.658
982.688
982.704
982.707
982.696
982.674
982.639
982.593
982.537
982.47
982.393
982.307
982.21
982.104
981.986
981.858
981.719
981.568
981.399
981.214
981.019
980.799
980.535
980.266
979.993
979.605
979.139
978.822
978.372
977.343
976.649
976.793
974.836
971.047
973.146
973.993
950.443
1029.82
1026.27
1022.18
1016.97
1017.15
1017.3
1016.11
1014.93
1014.68
1014.42
1013.92
1013.51
1013.25
1012.98
1012.67
1012.4
1012.16
1011.9
1011.65
1011.4
1011.16
1010.91
1010.65
1010.4
1010.14
1009.87
1009.59
1009.31
1009.02
1008.72
1008.41
1008.09
1007.75
1007.41
1007.05
1006.68
1006.3
1005.9
1005.48
1005.05
1004.61
1004.15
1003.67
1003.17
1002.66
1002.12
1001.57
1001
1000.41
999.804
999.177
998.531
997.867
997.185
996.486
995.769
995.037
994.289
993.527
992.753
991.967
991.171
990.367
989.556
988.741
987.923
987.104
986.287
985.472
984.664
983.863
983.071
982.291
981.523
980.772
980.036
979.319
978.622
977.946
977.292
976.66
976.052
975.469
974.91
974.377
973.869
973.387
972.93
972.498
972.091
971.709
971.351
971.018
970.707
970.419
970.154
969.91
969.687
969.484
969.302
969.138
968.992
968.864
968.754
968.66
968.582
968.52
968.472
968.439
968.419
968.413
968.42
968.44
968.472
968.515
968.569
968.634
968.71
968.797
968.893
968.999
969.115
969.24
969.374
969.517
969.668
969.829
969.998
970.175
970.362
970.556
970.759
970.97
971.189
971.416
971.652
971.896
972.149
972.409
972.678
972.955
973.24
973.533
973.834
974.143
974.458
974.781
975.111
975.447
975.789
976.137
976.49
976.847
977.207
977.571
977.937
978.304
978.673
979.041
979.408
979.774
980.136
980.496
980.85
981.2
981.543
981.88
982.208
982.528
982.839
983.141
983.431
983.711
983.978
984.234
984.478
984.708
984.926
985.13
985.321
985.499
985.662
985.812
985.948
986.071
986.179
986.274
986.355
986.423
986.476
986.514
986.539
986.548
986.543
986.522
986.484
986.431
986.36
986.272
986.165
986.041
985.897
985.735
985.554
985.354
985.136
984.9
984.647
984.378
984.094
983.796
983.486
983.166
982.837
982.503
982.165
981.826
981.489
981.156
980.83
980.514
980.21
979.922
979.651
979.399
979.17
978.964
978.784
978.63
978.505
978.407
978.338
978.297
978.285
978.301
978.343
978.411
978.503
978.617
978.752
978.905
979.074
979.257
979.452
979.656
979.866
980.081
980.297
980.513
980.727
980.936
981.139
981.334
981.519
981.693
981.855
982.004
982.139
982.259
982.365
982.456
982.531
982.591
982.637
982.668
982.685
982.688
982.677
982.655
982.62
982.574
982.517
982.449
982.371
982.283
982.184
982.075
981.955
981.824
981.681
981.524
981.355
981.167
980.956
980.731
980.484
980.189
979.859
979.532
979.124
978.567
978.052
977.595
976.604
975.324
974.843
973.711
969.599
965.847
963.84
1021.72
1026.53
1021.85
1017.54
1017.78
1017.49
1016.09
1015.13
1014.92
1014.56
1014.02
1013.62
1013.36
1013.06
1012.75
1012.47
1012.22
1011.96
1011.7
1011.45
1011.2
1010.94
1010.68
1010.42
1010.16
1009.89
1009.61
1009.32
1009.03
1008.73
1008.41
1008.09
1007.75
1007.41
1007.05
1006.67
1006.29
1005.89
1005.47
1005.04
1004.59
1004.13
1003.65
1003.15
1002.63
1002.1
1001.55
1000.97
1000.38
999.773
999.145
998.498
997.833
997.149
996.448
995.731
994.997
994.248
993.486
992.711
991.925
991.128
990.324
989.514
988.699
987.881
987.063
986.246
985.433
984.625
983.826
983.035
982.257
981.492
980.742
980.009
979.294
978.6
977.926
977.275
976.646
976.041
975.461
974.905
974.374
973.869
973.39
972.936
972.507
972.102
971.723
971.368
971.036
970.727
970.442
970.178
969.936
969.715
969.514
969.332
969.17
969.025
968.899
968.789
968.696
968.619
968.557
968.51
968.478
968.459
968.453
968.461
968.481
968.512
968.556
968.61
968.675
968.751
968.837
968.934
969.039
969.155
969.279
969.413
969.555
969.706
969.866
970.034
970.211
970.396
970.59
970.791
971.001
971.219
971.446
971.68
971.923
972.174
972.434
972.701
972.976
973.26
973.552
973.852
974.159
974.473
974.795
975.123
975.459
975.8
976.146
976.498
976.854
977.213
977.577
977.942
978.309
978.676
979.044
979.411
979.776
980.139
980.498
980.853
981.202
981.546
981.883
982.211
982.532
982.843
983.145
983.436
983.715
983.983
984.24
984.484
984.715
984.932
985.137
985.328
985.505
985.669
985.819
985.955
986.078
986.187
986.282
986.363
986.43
986.484
986.523
986.548
986.558
986.553
986.533
986.497
986.445
986.376
986.289
986.185
986.063
985.922
985.762
985.583
985.386
985.17
984.936
984.685
984.418
984.135
983.838
983.529
983.209
982.88
982.545
982.206
981.866
981.526
981.191
980.862
980.543
980.236
979.943
979.669
979.413
979.18
978.97
978.785
978.627
978.497
978.396
978.323
978.279
978.264
978.277
978.317
978.382
978.472
978.585
978.718
978.871
979.039
979.222
979.417
979.621
979.832
980.047
980.265
980.482
980.697
980.908
981.112
981.309
981.496
981.672
981.836
981.986
982.123
982.245
982.352
982.444
982.521
982.582
982.628
982.66
982.677
982.68
982.67
982.647
982.612
982.565
982.506
982.437
982.358
982.268
982.167
982.056
981.934
981.802
981.657
981.496
981.324
981.137
980.923
980.686
980.445
980.161
979.798
979.453
979.128
978.553
977.848
977.566
976.962
975.048
974.262
975.18
970.934
965.392
969.487
1021.44
1020.17
1019.63
1020.81
1018.3
1016.19
1016.14
1016.05
1015.13
1014.41
1014.17
1013.89
1013.47
1013.11
1012.85
1012.58
1012.29
1012.02
1011.77
1011.51
1011.25
1010.99
1010.73
1010.47
1010.2
1009.92
1009.64
1009.35
1009.06
1008.75
1008.44
1008.11
1007.77
1007.43
1007.06
1006.69
1006.3
1005.9
1005.48
1005.05
1004.6
1004.13
1003.65
1003.15
1002.63
1002.09
1001.54
1000.96
1000.37
999.758
999.127
998.477
997.809
997.123
996.419
995.699
994.962
994.211
993.445
992.667
991.878
991.079
990.272
989.459
988.641
987.822
987.002
986.183
985.368
984.56
983.759
982.969
982.19
981.425
980.676
979.944
979.231
978.538
977.867
977.217
976.591
975.989
975.412
974.859
974.332
973.83
973.354
972.903
972.477
972.077
971.701
971.348
971.02
970.715
970.432
970.171
969.931
969.713
969.514
969.335
969.174
969.032
968.907
968.799
968.708
968.632
968.572
968.526
968.495
968.477
968.473
968.481
968.502
968.534
968.578
968.634
968.7
968.776
968.863
968.959
969.065
969.181
969.305
969.439
969.581
969.732
969.891
970.06
970.236
970.42
970.613
970.814
971.024
971.241
971.467
971.701
971.943
972.193
972.451
972.717
972.992
973.275
973.566
973.864
974.171
974.484
974.805
975.133
975.468
975.808
976.154
976.505
976.861
977.221
977.584
977.949
978.316
978.684
979.052
979.42
979.785
980.148
980.508
980.863
981.213
981.558
981.895
982.225
982.546
982.858
983.16
983.452
983.732
984.001
984.258
984.503
984.734
984.952
985.157
985.349
985.526
985.69
985.841
985.977
986.099
986.208
986.303
986.384
986.452
986.506
986.546
986.571
986.582
986.579
986.56
986.526
986.475
986.408
986.324
986.222
986.102
985.963
985.805
985.629
985.433
985.219
984.986
984.736
984.469
984.186
983.888
983.577
983.255
982.924
982.586
982.243
981.899
981.555
981.214
980.88
980.555
980.242
979.944
979.663
979.402
979.163
978.948
978.758
978.596
978.461
978.356
978.28
978.233
978.216
978.227
978.265
978.33
978.419
978.532
978.666
978.82
978.99
979.175
979.372
979.578
979.792
980.01
980.231
980.451
980.669
980.883
981.091
981.29
981.48
981.659
981.825
981.978
982.117
982.242
982.351
982.444
982.522
982.584
982.631
982.663
982.68
982.683
982.672
982.649
982.613
982.565
982.505
982.435
982.354
982.262
982.161
982.049
981.926
981.791
981.645
981.487
981.31
981.119
980.916
980.682
980.412
980.145
979.847
979.435
979.012
978.687
978.113
977.21
976.783
976.417
974.558
972.973
973.161
972.341
970.537
1021.43
1019.25
1019.18
1019.07
1017.58
1017.16
1016.59
1015.73
1015.11
1014.8
1014.41
1013.94
1013.57
1013.29
1012.99
1012.68
1012.39
1012.13
1011.86
1011.6
1011.33
1011.07
1010.81
1010.54
1010.26
1009.99
1009.7
1009.41
1009.11
1008.8
1008.49
1008.16
1007.82
1007.47
1007.1
1006.73
1006.34
1005.93
1005.51
1005.08
1004.62
1004.16
1003.67
1003.17
1002.65
1002.11
1001.55
1000.97
1000.37
999.757
999.122
998.468
997.795
997.104
996.396
995.67
994.928
994.171
993.4
992.617
991.821
991.017
990.205
989.386
988.563
987.738
986.913
986.091
985.272
984.46
983.656
982.863
982.082
981.316
980.567
979.834
979.122
978.429
977.759
977.112
976.488
975.889
975.315
974.766
974.242
973.744
973.272
972.826
972.404
972.008
971.636
971.288
970.964
970.662
970.383
970.126
969.89
969.675
969.48
969.304
969.146
969.006
968.884
968.779
968.69
968.616
968.558
968.514
968.485
968.469
968.466
968.476
968.499
968.533
968.578
968.635
968.702
968.78
968.867
968.965
969.072
969.189
969.314
969.448
969.592
969.743
969.903
970.072
970.248
970.433
970.626
970.827
971.037
971.254
971.479
971.713
971.955
972.205
972.463
972.729
973.003
973.286
973.576
973.874
974.18
974.494
974.815
975.143
975.477
975.818
976.164
976.515
976.872
977.232
977.595
977.961
978.329
978.698
979.067
979.435
979.802
980.166
980.527
980.883
981.235
981.58
981.919
982.249
982.572
982.885
983.188
983.481
983.763
984.032
984.29
984.535
984.768
984.986
985.191
985.383
985.562
985.725
985.876
986.012
986.135
986.244
986.339
986.42
986.488
986.542
986.582
986.609
986.621
986.619
986.601
986.569
986.52
986.455
986.372
986.273
986.155
986.018
985.862
985.687
985.493
985.279
985.047
984.796
984.527
984.242
983.942
983.628
983.302
982.966
982.623
982.274
981.922
981.571
981.224
980.882
980.549
980.228
979.923
979.635
979.366
979.121
978.899
978.704
978.537
978.398
978.289
978.21
978.161
978.142
978.152
978.191
978.256
978.347
978.461
978.598
978.754
978.927
979.115
979.316
979.527
979.745
979.968
980.193
980.418
980.641
980.859
981.072
981.276
981.47
981.652
981.822
981.978
982.12
982.247
982.358
982.453
982.533
982.596
982.643
982.676
982.693
982.695
982.685
982.66
982.623
982.574
982.514
982.442
982.36
982.268
982.166
982.053
981.93
981.796
981.649
981.493
981.32
981.127
980.923
980.706
980.443
980.149
979.879
979.546
979.059
978.66
978.37
977.584
976.661
976.641
975.933
973.795
973.64
973.872
972.212
1019.34
1019.37
1018.95
1017.47
1017.6
1017.44
1016.26
1015.63
1015.45
1015.02
1014.43
1014.05
1013.79
1013.45
1013.1
1012.81
1012.54
1012.26
1011.98
1011.71
1011.44
1011.18
1010.91
1010.63
1010.36
1010.08
1009.79
1009.5
1009.19
1008.88
1008.56
1008.23
1007.89
1007.54
1007.17
1006.79
1006.4
1005.99
1005.57
1005.13
1004.68
1004.21
1003.72
1003.21
1002.68
1002.14
1001.58
1000.99
1000.39
999.771
999.13
998.47
997.79
997.093
996.377
995.643
994.894
994.129
993.349
992.557
991.754
990.94
990.119
989.292
988.461
987.629
986.796
985.966
985.141
984.323
983.513
982.716
981.931
981.162
980.409
979.676
978.962
978.27
977.6
976.954
976.333
975.736
975.166
974.62
974.101
973.608
973.14
972.699
972.283
971.891
971.525
971.182
970.863
970.567
970.293
970.04
969.809
969.598
969.407
969.235
969.081
968.944
968.826
968.724
968.637
968.567
968.511
968.47
968.444
968.43
968.43
968.442
968.466
968.503
968.551
968.609
968.679
968.759
968.848
968.948
969.057
969.176
969.303
969.439
969.584
969.737
969.899
970.069
970.247
970.433
970.627
970.83
971.04
971.258
971.485
971.719
971.961
972.212
972.471
972.738
973.013
973.296
973.586
973.885
974.192
974.506
974.828
975.156
975.491
975.833
976.18
976.532
976.89
977.251
977.615
977.982
978.352
978.721
979.092
979.461
979.829
980.195
980.557
980.915
981.268
981.615
981.955
982.287
982.611
982.925
983.229
983.523
983.806
984.077
984.336
984.582
984.814
985.034
985.24
985.432
985.61
985.775
985.925
986.061
986.184
986.293
986.388
986.47
986.538
986.592
986.633
986.66
986.673
986.672
986.656
986.624
986.577
986.514
986.433
986.335
986.219
986.084
985.929
985.755
985.561
985.347
985.113
984.861
984.59
984.301
983.997
983.677
983.345
983.003
982.652
982.294
981.935
981.574
981.217
980.866
980.524
980.194
979.879
979.583
979.307
979.054
978.826
978.625
978.453
978.31
978.197
978.116
978.065
978.046
978.056
978.095
978.162
978.256
978.373
978.513
978.674
978.852
979.045
979.251
979.468
979.692
979.92
980.152
980.383
980.612
980.836
981.054
981.263
981.462
981.65
981.824
981.985
982.13
982.26
982.373
982.471
982.552
982.616
982.664
982.697
982.714
982.717
982.705
982.68
982.643
982.593
982.532
982.46
982.378
982.286
982.183
982.071
981.949
981.817
981.672
981.515
981.349
981.166
980.957
980.738
980.515
980.234
979.905
979.633
979.309
978.758
978.316
978.112
977.359
976.345
976.245
975.95
974.772
974.148
974.386
1018.29
1018.69
1018.21
1017.56
1017.37
1016.63
1016.25
1016
1015.43
1014.89
1014.6
1014.3
1013.9
1013.54
1013.26
1012.98
1012.68
1012.39
1012.12
1011.85
1011.58
1011.3
1011.03
1010.76
1010.48
1010.2
1009.91
1009.61
1009.3
1008.99
1008.67
1008.33
1007.99
1007.64
1007.27
1006.88
1006.49
1006.08
1005.65
1005.21
1004.75
1004.28
1003.79
1003.27
1002.74
1002.19
1001.63
1001.04
1000.43
999.799
999.151
998.482
997.794
997.088
996.362
995.618
994.858
994.082
993.292
992.488
991.673
990.848
990.016
989.177
988.335
987.491
986.648
985.808
984.973
984.146
983.329
982.524
981.734
980.96
980.204
979.467
978.752
978.058
977.389
976.744
976.125
975.531
974.964
974.422
973.908
973.42
972.958
972.522
972.112
971.727
971.367
971.03
970.717
970.427
970.159
969.912
969.686
969.48
969.294
969.126
968.977
968.844
968.729
968.631
968.548
968.481
968.429
968.391
968.368
968.357
968.36
968.375
968.402
968.442
968.492
968.554
968.626
968.71
968.802
968.905
969.018
969.139
969.269
969.409
969.557
969.713
969.878
970.05
970.231
970.42
970.617
970.822
971.035
971.256
971.484
971.72
971.965
972.218
972.478
972.747
973.024
973.308
973.601
973.902
974.21
974.525
974.848
975.178
975.515
975.858
976.206
976.56
976.919
977.281
977.647
978.016
978.386
978.758
979.129
979.501
979.87
980.237
980.601
980.96
981.314
981.663
982.004
982.337
982.662
982.978
983.284
983.579
983.863
984.134
984.394
984.64
984.874
985.094
985.3
985.493
985.671
985.836
985.986
986.123
986.246
986.354
986.45
986.531
986.599
986.654
986.695
986.722
986.736
986.735
986.721
986.69
986.645
986.583
986.503
986.407
986.292
986.157
986.003
985.829
985.634
985.419
985.183
984.927
984.652
984.359
984.048
983.722
983.382
983.031
982.671
982.304
981.934
981.563
981.195
980.833
980.48
980.14
979.815
979.51
979.225
978.965
978.73
978.524
978.346
978.199
978.084
978.001
977.949
977.929
977.941
977.982
978.052
978.148
978.27
978.415
978.581
978.764
978.964
979.177
979.4
979.632
979.867
980.106
980.344
980.58
980.812
981.036
981.252
981.457
981.65
981.83
981.994
982.144
982.277
982.394
982.494
982.577
982.643
982.692
982.726
982.743
982.746
982.735
982.709
982.672
982.622
982.561
982.489
982.407
982.316
982.215
982.104
981.984
981.854
981.716
981.563
981.397
981.225
981.033
980.811
980.586
980.36
980.054
979.716
979.468
979.115
978.53
978.197
977.993
977.177
976.544
976.54
975.989
975.502
975.732
1018.02
1017.72
1017.49
1017.61
1016.97
1016.39
1016.29
1015.85
1015.33
1015.03
1014.74
1014.34
1013.99
1013.71
1013.42
1013.1
1012.81
1012.55
1012.27
1011.99
1011.72
1011.45
1011.18
1010.9
1010.62
1010.33
1010.04
1009.74
1009.44
1009.12
1008.8
1008.46
1008.12
1007.76
1007.39
1007
1006.61
1006.19
1005.76
1005.32
1004.86
1004.38
1003.88
1003.36
1002.82
1002.27
1001.69
1001.1
1000.48
999.843
999.185
998.507
997.808
997.089
996.352
995.596
994.822
994.033
993.228
992.41
991.58
990.741
989.893
989.04
988.184
987.326
986.469
985.617
984.77
983.932
983.105
982.291
981.493
980.712
979.951
979.21
978.491
977.797
977.127
976.483
975.865
975.274
974.711
974.174
973.665
973.182
972.727
972.298
971.895
971.516
971.163
970.834
970.527
970.244
969.982
969.742
969.522
969.321
969.141
968.978
968.834
968.706
968.595
968.501
968.422
968.359
968.311
968.276
968.256
968.249
968.255
968.273
968.304
968.347
968.401
968.467
968.543
968.631
968.727
968.834
968.951
969.077
969.212
969.356
969.508
969.669
969.838
970.016
970.201
970.394
970.596
970.805
971.022
971.247
971.479
971.719
971.968
972.224
972.488
972.76
973.04
973.327
973.623
973.926
974.237
974.555
974.881
975.213
975.552
975.897
976.247
976.603
976.964
977.328
977.695
978.065
978.438
978.811
979.184
979.556
979.927
980.295
980.66
981.02
981.376
981.725
982.067
982.402
982.728
983.044
983.351
983.646
983.931
984.203
984.463
984.71
984.944
985.165
985.371
985.564
985.743
985.907
986.058
986.195
986.317
986.426
986.521
986.603
986.67
986.725
986.766
986.794
986.808
986.808
986.793
986.764
986.719
986.658
986.579
986.483
986.368
986.234
986.08
985.905
985.708
985.491
985.252
984.992
984.712
984.412
984.094
983.76
983.411
983.05
982.679
982.301
981.919
981.536
981.157
980.783
980.419
980.068
979.733
979.418
979.125
978.856
978.615
978.403
978.221
978.07
977.953
977.868
977.816
977.797
977.81
977.853
977.926
978.027
978.154
978.304
978.476
978.667
978.874
979.094
979.325
979.565
979.809
980.055
980.301
980.546
980.785
981.017
981.24
981.452
981.651
981.836
982.007
982.161
982.298
982.418
982.521
982.607
982.675
982.726
982.76
982.779
982.782
982.772
982.747
982.709
982.66
982.6
982.529
982.449
982.359
982.26
982.153
982.037
981.911
981.777
981.634
981.475
981.303
981.129
980.934
980.698
980.472
980.255
979.935
979.581
979.369
979.039
978.452
978.153
978.021
977.442
976.932
976.927
976.914
976.701
1017.56
1017.36
1017.23
1017.04
1016.65
1016.5
1016.09
1015.64
1015.42
1015.12
1014.71
1014.39
1014.14
1013.83
1013.51
1013.23
1012.97
1012.69
1012.41
1012.15
1011.88
1011.61
1011.33
1011.06
1010.78
1010.49
1010.2
1009.9
1009.59
1009.27
1008.95
1008.61
1008.26
1007.9
1007.53
1007.14
1006.74
1006.33
1005.89
1005.45
1004.98
1004.5
1003.99
1003.47
1002.93
1002.36
1001.78
1001.18
1000.55
999.901
999.232
998.542
997.83
997.099
996.347
995.576
994.786
993.981
993.159
992.324
991.477
990.62
989.754
988.883
988.01
987.135
986.262
985.394
984.533
983.682
982.842
982.017
981.209
980.42
979.652
978.906
978.184
977.488
976.817
976.173
975.557
974.969
974.41
973.878
973.375
972.899
972.45
972.028
971.633
971.262
970.917
970.595
970.297
970.021
969.766
969.533
969.319
969.125
968.95
968.794
968.654
968.532
968.425
968.336
968.261
968.201
968.157
968.126
968.109
968.105
968.115
968.138
968.172
968.219
968.278
968.348
968.429
968.521
968.623
968.735
968.857
968.988
969.129
969.279
969.438
969.605
969.78
969.964
970.156
970.356
970.563
970.779
971.002
971.233
971.471
971.717
971.971
972.233
972.502
972.779
973.064
973.356
973.656
973.963
974.278
974.6
974.929
975.264
975.606
975.954
976.307
976.665
977.028
977.394
977.763
978.135
978.508
978.883
979.257
979.63
980.002
980.371
980.737
981.098
981.453
981.803
982.146
982.48
982.807
983.123
983.43
983.726
984.01
984.282
984.542
984.789
985.024
985.244
985.451
985.643
985.822
985.986
986.137
986.273
986.396
986.504
986.599
986.68
986.748
986.803
986.843
986.871
986.885
986.885
986.87
986.841
986.796
986.735
986.656
986.56
986.445
986.31
986.155
985.978
985.779
985.559
985.316
985.051
984.765
984.458
984.132
983.788
983.429
983.057
982.675
982.285
981.891
981.496
981.104
980.718
980.343
979.981
979.635
979.311
979.009
978.733
978.485
978.267
978.08
977.927
977.807
977.721
977.669
977.651
977.665
977.712
977.789
977.894
978.026
978.183
978.362
978.56
978.775
979.003
979.243
979.491
979.744
980
980.255
980.508
980.755
980.996
981.226
981.446
981.652
981.843
982.02
982.179
982.321
982.446
982.552
982.64
982.711
982.764
982.8
982.82
982.825
982.815
982.792
982.756
982.708
982.65
982.581
982.503
982.417
982.321
982.218
982.108
981.989
981.859
981.724
981.58
981.417
981.243
981.072
980.875
980.633
980.418
980.208
979.879
979.556
979.375
979.038
978.565
978.367
978.176
977.809
977.673
977.683
977.739
1017.03
1017.07
1016.97
1016.62
1016.51
1016.32
1015.9
1015.65
1015.4
1015.05
1014.75
1014.5
1014.2
1013.9
1013.63
1013.37
1013.1
1012.82
1012.56
1012.3
1012.03
1011.76
1011.49
1011.22
1010.94
1010.65
1010.36
1010.06
1009.76
1009.44
1009.11
1008.78
1008.43
1008.07
1007.69
1007.3
1006.9
1006.48
1006.05
1005.59
1005.12
1004.63
1004.13
1003.6
1003.05
1002.48
1001.88
1001.27
1000.63
999.973
999.292
998.588
997.862
997.115
996.346
995.558
994.751
993.926
993.085
992.23
991.363
990.485
989.599
988.708
987.814
986.919
986.027
985.141
984.263
983.396
982.542
981.704
980.885
980.086
979.31
978.558
977.831
977.132
976.461
975.818
975.204
974.619
974.064
973.538
973.041
972.572
972.131
971.717
971.33
970.969
970.632
970.319
970.029
969.761
969.515
969.289
969.083
968.896
968.727
968.576
968.442
968.324
968.223
968.137
968.067
968.011
967.97
967.943
967.93
967.93
967.943
967.969
968.008
968.059
968.122
968.197
968.283
968.38
968.488
968.606
968.735
968.873
969.021
969.178
969.344
969.52
969.703
969.895
970.096
970.304
970.52
970.744
970.976
971.214
971.461
971.715
971.977
972.246
972.523
972.806
973.098
973.396
973.702
974.015
974.335
974.662
974.995
975.335
975.681
976.032
976.388
976.749
977.114
977.482
977.853
978.227
978.601
978.977
979.352
979.725
980.097
980.466
980.832
981.193
981.548
981.897
982.239
982.573
982.898
983.214
983.52
983.815
984.098
984.37
984.629
984.876
985.109
985.328
985.534
985.727
985.905
986.068
986.219
986.355
986.477
986.585
986.68
986.76
986.828
986.881
986.922
986.949
986.962
986.962
986.946
986.916
986.871
986.809
986.731
986.634
986.517
986.381
986.224
986.044
985.843
985.618
985.37
985.1
984.807
984.492
984.158
983.805
983.435
983.052
982.658
982.256
981.849
981.442
981.038
980.64
980.253
979.88
979.525
979.19
978.88
978.597
978.342
978.119
977.928
977.771
977.65
977.562
977.511
977.493
977.51
977.56
977.641
977.752
977.89
978.053
978.239
978.445
978.668
978.905
979.154
979.411
979.674
979.939
980.204
980.466
980.722
980.972
981.211
981.438
981.651
981.85
982.033
982.198
982.345
982.474
982.585
982.676
982.75
982.806
982.845
982.867
982.874
982.866
982.845
982.811
982.765
982.71
982.644
982.57
982.488
982.398
982.301
982.195
982.085
981.965
981.835
981.701
981.56
981.397
981.223
981.061
980.866
980.622
980.423
980.232
979.909
979.617
979.47
979.189
978.819
978.675
978.606
978.425
978.395
978.641
1016.74
1016.73
1016.63
1016.48
1016.33
1016.03
1015.84
1015.64
1015.3
1015.04
1014.81
1014.53
1014.24
1013.99
1013.75
1013.47
1013.21
1012.96
1012.71
1012.44
1012.18
1011.92
1011.65
1011.38
1011.1
1010.82
1010.53
1010.24
1009.93
1009.62
1009.29
1008.95
1008.6
1008.24
1007.87
1007.48
1007.07
1006.65
1006.21
1005.76
1005.28
1004.79
1004.28
1003.74
1003.18
1002.6
1002
1001.38
1000.73
1000.06
999.363
998.644
997.902
997.138
996.351
995.544
994.716
993.87
993.008
992.13
991.239
990.338
989.429
988.514
987.596
986.679
985.766
984.859
983.961
983.075
982.205
981.352
980.52
979.711
978.926
978.167
977.435
976.733
976.061
975.418
974.807
974.226
973.675
973.156
972.666
972.205
971.773
971.369
970.992
970.639
970.313
970.009
969.729
969.47
969.232
969.015
968.816
968.636
968.474
968.329
968.201
968.088
967.992
967.91
967.844
967.792
967.754
967.73
967.721
967.724
967.741
967.771
967.813
967.868
967.936
968.015
968.107
968.21
968.324
968.449
968.585
968.732
968.887
969.054
969.229
969.413
969.607
969.809
970.02
970.239
970.465
970.7
970.942
971.192
971.448
971.713
971.985
972.263
972.55
972.843
973.143
973.45
973.763
974.083
974.41
974.743
975.082
975.428
975.778
976.134
976.493
976.858
977.225
977.596
977.968
978.343
978.719
979.095
979.47
979.843
980.214
980.583
980.947
981.306
981.66
982.008
982.348
982.68
983.003
983.318
983.621
983.914
984.195
984.465
984.722
984.966
985.198
985.416
985.62
985.811
985.987
986.15
986.299
986.434
986.555
986.662
986.756
986.836
986.903
986.956
986.996
987.022
987.034
987.033
987.016
986.985
986.939
986.876
986.796
986.697
986.579
986.441
986.281
986.098
985.893
985.664
985.411
985.135
984.835
984.513
984.169
983.807
983.427
983.033
982.628
982.214
981.795
981.376
980.96
980.551
980.153
979.769
979.404
979.061
978.742
978.452
978.191
977.962
977.767
977.607
977.483
977.396
977.344
977.328
977.347
977.4
977.486
977.601
977.746
977.916
978.109
978.323
978.555
978.801
979.059
979.326
979.599
979.874
980.148
980.42
980.686
980.944
981.192
981.428
981.65
981.856
982.045
982.216
982.369
982.503
982.618
982.714
982.791
982.85
982.892
982.917
982.927
982.922
982.903
982.873
982.831
982.779
982.718
982.649
982.572
982.489
982.398
982.301
982.197
982.089
981.973
981.845
981.715
981.58
981.419
981.252
981.101
980.91
980.677
980.501
980.317
980.029
979.796
979.652
979.428
979.213
979.133
979.088
979.135
979.336
1016.52
1016.45
1016.37
1016.32
1016.12
1015.91
1015.77
1015.51
1015.27
1015.07
1014.81
1014.55
1014.32
1014.08
1013.82
1013.57
1013.33
1013.08
1012.83
1012.58
1012.33
1012.07
1011.81
1011.54
1011.27
1010.99
1010.71
1010.41
1010.11
1009.8
1009.47
1009.14
1008.79
1008.43
1008.05
1007.66
1007.26
1006.84
1006.4
1005.94
1005.46
1004.96
1004.44
1003.9
1003.33
1002.75
1002.14
1001.5
1000.84
1000.15
999.445
998.71
997.951
997.167
996.361
995.532
994.682
993.813
992.926
992.023
991.106
990.179
989.243
988.301
987.358
986.415
985.477
984.547
983.627
982.721
981.832
980.963
980.116
979.294
978.499
977.733
976.996
976.291
975.617
974.976
974.367
973.791
973.247
972.735
972.253
971.802
971.38
970.986
970.619
970.278
969.962
969.669
969.399
969.15
968.922
968.713
968.523
968.351
968.195
968.057
967.934
967.827
967.735
967.658
967.595
967.547
967.513
967.492
967.485
967.491
967.511
967.545
967.591
967.65
967.722
967.807
967.904
968.013
968.133
968.266
968.41
968.565
968.73
968.905
969.091
969.287
969.492
969.706
969.928
970.16
970.399
970.646
970.901
971.164
971.433
971.711
971.995
972.285
972.583
972.888
973.199
973.516
973.839
974.169
974.504
974.845
975.191
975.543
975.899
976.259
976.624
976.992
977.362
977.735
978.11
978.486
978.862
979.238
979.612
979.985
980.355
980.721
981.084
981.441
981.792
982.136
982.473
982.802
983.122
983.432
983.732
984.021
984.299
984.565
984.819
985.06
985.288
985.503
985.704
985.892
986.067
986.227
986.373
986.507
986.626
986.732
986.824
986.902
986.968
987.02
987.058
987.083
987.095
987.092
987.074
987.042
986.994
986.929
986.847
986.746
986.625
986.484
986.321
986.135
985.926
985.692
985.435
985.152
984.846
984.516
984.165
983.793
983.404
983
982.583
982.159
981.729
981.299
980.872
980.452
980.043
979.65
979.275
978.924
978.598
978.3
978.033
977.8
977.601
977.438
977.312
977.224
977.172
977.158
977.179
977.236
977.325
977.446
977.596
977.773
977.974
978.196
978.437
978.693
978.961
979.237
979.52
979.805
980.09
980.372
980.647
980.915
981.172
981.416
981.646
981.86
982.056
982.234
982.393
982.533
982.653
982.753
982.835
982.897
982.943
982.971
982.984
982.983
982.968
982.942
982.904
982.857
982.802
982.738
982.668
982.591
982.509
982.422
982.327
982.228
982.126
982.014
981.891
981.77
981.642
981.486
981.329
981.192
981.009
980.793
980.639
980.472
980.226
980.039
979.93
979.774
979.649
979.643
979.718
979.892
1016.29
1016.26
1016.21
1016.1
1015.96
1015.85
1015.65
1015.43
1015.27
1015.05
1014.8
1014.59
1014.37
1014.13
1013.9
1013.67
1013.44
1013.19
1012.96
1012.72
1012.47
1012.22
1011.96
1011.7
1011.44
1011.16
1010.88
1010.59
1010.29
1009.98
1009.66
1009.33
1008.98
1008.62
1008.25
1007.86
1007.45
1007.03
1006.59
1006.13
1005.64
1005.14
1004.62
1004.07
1003.5
1002.9
1002.28
1001.63
1000.96
1000.26
999.537
998.785
998.008
997.204
996.375
995.524
994.649
993.754
992.84
991.909
990.964
990.007
989.041
988.07
987.098
986.127
985.161
984.204
983.26
982.331
981.421
980.534
979.671
978.836
978.03
977.255
976.513
975.805
975.131
974.492
973.886
973.316
972.779
972.275
971.803
971.363
970.952
970.57
970.215
969.886
969.582
969.302
969.043
968.805
968.587
968.388
968.207
968.042
967.895
967.763
967.646
967.544
967.457
967.384
967.325
967.28
967.248
967.23
967.226
967.235
967.258
967.294
967.344
967.407
967.483
967.573
967.675
967.79
967.917
968.057
968.21
968.374
968.549
968.735
968.932
969.14
969.357
969.585
969.821
970.066
970.32
970.582
970.853
971.13
971.415
971.707
972.006
972.311
972.622
972.941
973.265
973.594
973.929
974.27
974.615
974.966
975.321
975.68
976.043
976.41
976.779
977.151
977.526
977.901
978.278
978.655
979.032
979.407
979.781
980.152
980.519
980.883
981.242
981.596
981.943
982.283
982.615
982.939
983.254
983.559
983.854
984.137
984.41
984.67
984.919
985.155
985.378
985.588