# vtk DataFile Version 2.0
LBE mesh
ASCII
DATASET STRUCTURED_POINTS
DIMENSIONS 300 100 1
ASPECT_RATIO 1 1 1
ORIGIN 0 0 0
POINT_DATA 30000
SCALARS rho double 1
LOOKUP_TABLE default
1047.41
1015.79
1015.09
1021.55
1019.72
1015.83
1015.64
1016.15
1015.39
1014.6
1014.43
1014.27
1013.9
1013.6
1013.41
1013.2
1012.96
1012.74
1012.54
1012.34
1012.13
1011.92
1011.71
1011.5
1011.29
1011.07
1010.84
1010.61
1010.37
1010.13
1009.87
1009.61
1009.34
1009.06
1008.76
1008.46
1008.14
1007.81
1007.47
1007.11
1006.74
1006.35
1005.95
1005.53
1005.1
1004.65
1004.18
1003.7
1003.2
1002.68
1002.14
1001.58
1001.01
1000.42
999.813
999.19
998.551
997.898
997.23
996.55
995.858
995.155
994.444
993.725
993
992.271
991.541
990.809
990.079
989.352
988.63
987.915
987.208
986.511
985.827
985.155
984.498
983.857
983.233
982.627
982.04
981.472
980.924
980.397
979.89
979.404
978.94
978.496
978.073
977.67
977.287
976.924
976.581
976.256
975.95
975.661
975.389
975.134
974.895
974.672
974.463
974.268
974.087
973.918
973.762
973.617
973.484
973.362
973.249
973.146
973.052
972.967
972.89
972.821
972.759
972.704
972.655
972.612
972.575
972.544
972.517
972.496
972.478
972.465
972.456
972.45
972.447
972.446
972.449
972.455
972.462
972.471
972.481
972.493
972.506
972.52
972.535
972.55
972.565
972.58
972.596
972.611
972.626
972.64
972.654
972.668
972.681
972.693
972.705
972.716
972.728
972.739
972.75
972.761
972.774
972.788
972.804
972.823
972.845
972.871
972.903
972.94
972.985
973.038
973.1
973.172
973.256
973.352
973.462
973.587
973.727
973.883
974.056
974.246
974.453
974.678
974.922
975.182
975.46
975.755
976.065
976.391
976.731
977.083
977.448
977.824
978.208
978.601
978.999
979.403
979.81
980.219
980.628
981.037
981.444
981.848
982.247
982.64
983.027
983.407
983.778
984.14
984.493
984.836
985.169
985.49
985.799
986.097
986.384
986.658
986.921
987.171
987.41
987.636
987.85
988.053
988.243
988.422
988.589
988.745
988.89
989.022
989.143
989.253
989.35
989.436
989.509
989.569
989.617
989.651
989.671
989.677
989.668
989.643
989.603
989.546
989.472
989.381
989.272
989.146
989.001
988.839
988.658
988.46
988.244
988.012
987.763
987.499
987.221
986.931
986.628
986.315
985.994
985.665
985.332
984.995
984.656
984.319
983.984
983.653
983.329
983.013
982.707
982.413
982.132
981.866
981.615
981.381
981.164
980.965
980.783
980.619
980.473
980.342
980.227
980.125
980.035
979.954
979.878
979.806
979.734
979.653
979.563
979.466
979.344
979.178
979.001
978.812
978.501
978.098
977.828
977.417
976.413
975.717
975.85
973.89
970.091
972.162
973.024
949.634
1030.34
1026.81
1022.74
1017.56
1017.74
1017.91
1016.74
1015.58
1015.35
1015.11
1014.63
1014.24
1014.01
1013.76
1013.48
1013.24
1013.02
1012.8
1012.58
1012.37
1012.16
1011.95
1011.73
1011.52
1011.3
1011.08
1010.85
1010.61
1010.37
1010.13
1009.87
1009.6
1009.33
1009.04
1008.75
1008.44
1008.12
1007.79
1007.44
1007.08
1006.71
1006.32
1005.92
1005.5
1005.06
1004.61
1004.14
1003.65
1003.15
1002.63
1002.09
1001.53
1000.96
1000.37
999.764
999.141
998.503
997.85
997.183
996.503
995.813
995.112
994.402
993.685
992.962
992.236
991.507
990.779
990.051
989.327
988.608
987.896
987.193
986.499
985.818
985.149
984.496
983.858
983.237
982.634
982.05
981.485
980.94
980.415
979.911
979.427
978.965
978.523
978.101
977.7
977.319
976.958
976.615
976.292
975.986
975.699
975.428
975.174
974.935
974.712
974.504
974.31
974.128
973.96
973.804
973.66
973.527
973.405
973.292
973.189
973.095
973.01
972.934
972.865
972.803
972.748
972.699
972.657
972.62
972.589
972.563
972.541
972.524
972.511
972.502
972.496
972.493
972.493
972.496
972.501
972.508
972.517
972.527
972.539
972.552
972.565
972.58
972.594
972.609
972.624
972.639
972.654
972.668
972.682
972.696
972.709
972.721
972.733
972.744
972.755
972.766
972.777
972.787
972.799
972.811
972.825
972.84
972.859
972.88
972.907
972.937
972.975
973.019
973.071
973.132
973.203
973.286
973.381
973.49
973.613
973.751
973.905
974.076
974.264
974.469
974.692
974.933
975.191
975.466
975.758
976.066
976.389
976.727
977.077
977.439
977.812
978.195
978.585
978.982
979.384
979.789
980.196
980.605
981.012
981.418
981.821
982.219
982.612
982.998
983.378
983.749
984.111
984.464
984.807
985.139
985.461
985.771
986.069
986.356
986.631
986.894
987.145
987.383
987.61
987.825
988.028
988.219
988.399
988.566
988.723
988.867
989
989.122
989.232
989.33
989.416
989.489
989.55
989.599
989.633
989.655
989.662
989.654
989.631
989.592
989.536
989.465
989.375
989.269
989.144
989.002
988.841
988.663
988.467
988.253
988.023
987.777
987.515
987.239
986.95
986.649
986.337
986.017
985.689
985.356
985.02
984.681
984.343
984.008
983.676
983.351
983.033
982.725
982.429
982.145
981.876
981.622
981.385
981.164
980.961
980.775
980.607
980.456
980.321
980.2
980.093
979.997
979.91
979.83
979.751
979.671
979.588
979.493
979.38
979.252
979.102
978.899
978.655
978.404
978.062
977.558
977.079
976.649
975.669
974.387
973.897
972.77
968.653
964.943
963.105
1022.26
1027.07
1022.41
1018.12
1018.37
1018.1
1016.72
1015.78
1015.59
1015.25
1014.73
1014.36
1014.12
1013.84
1013.56
1013.31
1013.09
1012.86
1012.63
1012.41
1012.2
1011.98
1011.76
1011.55
1011.32
1011.1
1010.87
1010.63
1010.38
1010.13
1009.87
1009.61
1009.33
1009.04
1008.74
1008.43
1008.11
1007.78
1007.43
1007.07
1006.69
1006.3
1005.9
1005.48
1005.04
1004.58
1004.11
1003.63
1003.12
1002.6
1002.06
1001.5
1000.93
1000.33
999.727
999.103
998.463
997.809
997.142
996.461
995.77
995.069
994.359
993.642
992.92
992.194
991.466
990.738
990.011
989.288
988.571
987.86
987.158
986.467
985.787
985.121
984.47
983.834
983.216
982.616
982.034
981.472
980.929
980.407
979.905
979.424
978.964
978.525
978.106
977.707
977.328
976.969
976.628
976.307
976.003
975.717
975.448
975.195
974.958
974.736
974.529
974.335
974.155
973.988
973.833
973.69
973.557
973.436
973.324
973.222
973.129
973.044
972.968
972.899
972.838
972.784
972.736
972.694
972.658
972.627
972.601
972.58
972.564
972.551
972.542
972.537
972.534
972.535
972.537
972.543
972.55
972.559
972.57
972.582
972.594
972.608
972.622
972.637
972.652
972.666
972.681
972.696
972.71
972.723
972.736
972.749
972.761
972.772
972.783
972.794
972.804
972.814
972.823
972.834
972.846
972.858
972.873
972.891
972.911
972.936
972.966
973.001
973.044
973.094
973.153
973.222
973.303
973.396
973.503
973.623
973.759
973.911
974.079
974.264
974.467
974.688
974.926
975.182
975.455
975.746
976.052
976.373
976.709
977.058
977.419
977.792
978.173
978.562
978.959
979.36
979.765
980.172
980.58
980.988
981.394
981.796
982.195
982.588
982.975
983.354
983.726
984.089
984.442
984.785
985.118
985.44
985.751
986.05
986.337
986.613
986.876
987.127
987.366
987.594
987.809
988.012
988.204
988.383
988.552
988.708
988.853
988.987
989.109
989.219
989.318
989.404
989.479
989.541
989.59
989.626
989.649
989.657
989.651
989.63
989.593
989.54
989.47
989.383
989.278
989.156
989.015
988.857
988.681
988.487
988.275
988.046
987.801
987.54
987.265
986.976
986.675
986.364
986.043
985.714
985.38
985.042
984.702
984.362
984.024
983.69
983.361
983.041
982.729
982.429
982.142
981.869
981.611
981.37
981.145
980.938
980.748
980.576
980.421
980.282
980.158
980.048
979.948
979.858
979.775
979.694
979.61
979.524
979.432
979.315
979.178
979.035
978.846
978.571
978.303
978.047
977.53
976.863
976.606
976.022
974.115
973.317
974.236
970.021
964.577
968.861
1021.98
1020.72
1020.19
1021.38
1018.89
1016.8
1016.77
1016.69
1015.79
1015.1
1014.88
1014.62
1014.22
1013.9
1013.66
1013.42
1013.16
1012.92
1012.7
1012.48
1012.25
1012.03
1011.81
1011.59
1011.36
1011.13
1010.9
1010.66
1010.41
1010.16
1009.9
1009.63
1009.35
1009.06
1008.76
1008.45
1008.12
1007.79
1007.44
1007.07
1006.7
1006.3
1005.9
1005.47
1005.03
1004.58
1004.1
1003.61
1003.11
1002.58
1002.04
1001.48
1000.9
1000.31
999.697
999.07
998.429
997.772
997.102
996.419
995.725
995.021
994.309
993.59
992.865
992.137
991.407
990.677
989.95
989.226
988.508
987.797
987.095
986.404
985.726
985.061
984.411
983.777
983.16
982.562
981.983
981.424
980.884
980.365
979.866
979.389
978.932
978.495
978.08
977.684
977.308
976.952
976.614
976.296
975.995
975.711
975.444
975.194
974.959
974.739
974.534
974.342
974.164
973.999
973.845
973.703
973.572
973.451
973.341
973.24
973.148
973.064
972.989
972.921
972.861
972.807
972.76
972.719
972.684
972.654
972.629
972.608
972.592
972.58
972.572
972.567
972.566
972.567
972.57
972.577
972.584
972.594
972.605
972.617
972.631
972.645
972.659
972.674
972.689
972.704
972.718
972.733
972.747
972.76
972.773
972.785
972.797
972.808
972.818
972.828
972.837
972.847
972.856
972.865
972.875
972.887
972.9
972.916
972.935
972.958
972.985
973.018
973.058
973.106
973.162
973.229
973.307
973.397
973.5
973.618
973.751
973.9
974.065
974.248
974.448
974.667
974.904
975.158
975.43
975.719
976.024
976.345
976.68
977.029
977.39
977.762
978.144
978.534
978.93
979.332
979.738
980.146
980.555
980.964
981.37
981.774
982.174
982.568
982.956
983.336
983.709
984.072
984.427
984.771
985.104
985.427
985.738
986.038
986.326
986.602
986.866
987.118
987.357
987.585
987.8
988.004
988.195
988.375
988.544
988.701
988.846
988.98
989.103
989.214
989.313
989.4
989.476
989.539
989.59
989.628
989.652
989.663
989.659
989.639
989.605
989.554
989.486
989.402
989.299
989.179
989.041
988.884
988.71
988.517
988.306
988.078
987.834
987.573
987.297
987.008
986.706
986.393
986.07
985.739
985.402
985.061
984.717
984.373
984.031
983.693
983.36
983.035
982.719
982.415
982.123
981.845
981.583
981.337
981.108
980.897
980.704
980.528
980.37
980.229
980.102
979.99
979.89
979.799
979.714
979.634
979.553
979.465
979.37
979.268
979.136
978.968
978.797
978.591
978.261
977.908
977.641
977.112
976.239
975.826
975.464
973.61
972.036
972.235
971.511
969.954
1021.97
1019.8
1019.74
1019.64
1018.17
1017.76
1017.21
1016.37
1015.77
1015.48
1015.11
1014.67
1014.33
1014.07
1013.79
1013.51
1013.26
1013.03
1012.79
1012.56
1012.33
1012.11
1011.88
1011.66
1011.43
1011.2
1010.96
1010.71
1010.47
1010.21
1009.94
1009.67
1009.39
1009.1
1008.8
1008.48
1008.16
1007.82
1007.47
1007.1
1006.72
1006.33
1005.92
1005.49
1005.05
1004.59
1004.11
1003.62
1003.11
1002.58
1002.03
1001.47
1000.89
1000.29
999.673
999.042
998.395
997.733
997.058
996.37
995.671
994.962
994.245
993.521
992.792
992.059
991.325
990.592
989.86
989.133
988.413
987.7
986.997
986.304
985.625
984.961
984.311
983.679
983.064
982.468
981.891
981.335
980.798
980.283
979.788
979.314
978.861
978.429
978.018
977.626
977.255
976.903
976.57
976.254
975.957
975.678
975.415
975.168
974.936
974.719
974.517
974.328
974.152
973.988
973.837
973.697
973.568
973.449
973.34
973.24
973.149
973.067
972.993
972.926
972.866
972.814
972.768
972.727
972.693
972.664
972.64
972.621
972.606
972.594
972.587
972.583
972.582
972.584
972.589
972.596
972.605
972.615
972.628
972.641
972.655
972.67
972.685
972.701
972.716
972.731
972.747
972.762
972.776
972.789
972.802
972.814
972.826
972.836
972.846
972.855
972.864
972.872
972.88
972.888
972.897
972.907
972.919
972.932
972.949
972.969
972.994
973.024
973.061
973.105
973.159
973.222
973.296
973.383
973.483
973.598
973.728
973.874
974.037
974.218
974.416
974.633
974.867
975.121
975.392
975.681
975.986
976.307
976.642
976.992
977.354
977.727
978.11
978.502
978.9
979.303
979.711
980.12
980.531
980.941
981.35
981.755
982.156
982.551
982.941
983.322
983.696
984.061
984.417
984.762
985.096
985.42
985.732
986.032
986.321
986.597
986.862
987.114
987.354
987.582
987.798
988.002
988.194
988.374
988.543
988.7
988.846
988.98
989.103
989.215
989.315
989.404
989.48
989.545
989.598
989.637
989.664
989.676
989.674
989.658
989.626
989.577
989.512
989.43
989.33
989.212
989.076
988.921
988.748
988.556
988.346
988.118
987.873
987.612
987.334
987.043
986.738
986.422
986.096
985.761
985.42
985.074
984.726
984.377
984.029
983.686
983.348
983.017
982.696
982.386
982.089
981.807
981.539
981.289
981.056
980.842
980.645
980.467
980.307
980.164
980.036
979.923
979.824
979.734
979.651
979.572
979.496
979.415
979.321
979.22
979.109
978.951
978.758
978.581
978.333
977.919
977.579
977.335
976.581
975.672
975.656
974.946
972.818
972.675
972.977
971.54
1019.88
1019.91
1019.5
1018.04
1018.18
1018.04
1016.88
1016.26
1016.11
1015.7
1015.12
1014.78
1014.54
1014.23
1013.9
1013.64
1013.4
1013.15
1012.9
1012.67
1012.44
1012.21
1011.98
1011.75
1011.52
1011.28
1011.04
1010.8
1010.54
1010.29
1010.02
1009.74
1009.46
1009.16
1008.86
1008.54
1008.21
1007.87
1007.52
1007.15
1006.77
1006.37
1005.96
1005.53
1005.08
1004.62
1004.14
1003.64
1003.12
1002.59
1002.04
1001.47
1000.88
1000.28
999.654
999.016
998.362
997.692
997.01
996.314
995.607
994.89
994.165
993.433
992.696
991.956
991.216
990.476
989.739
989.007
988.282
987.565
986.858
986.164
985.483
984.817
984.167
983.536
982.922
982.328
981.754
981.201
980.668
980.156
979.666
979.197
978.749
978.323
977.917
977.531
977.165
976.818
976.49
976.181
975.889
975.614
975.355
975.113
974.885
974.673
974.474
974.288
974.115
973.955
973.806
973.668
973.541
973.424
973.317
973.219
973.13
973.049
972.976
972.91
972.852
972.8
972.755
972.715
972.682
972.653
972.63
972.612
972.598
972.587
972.581
972.578
972.578
972.581
972.587
972.596
972.606
972.617
972.631
972.645
972.661
972.677
972.693
972.71
972.727
972.744
972.76
972.776
972.791
972.805
972.818
972.831
972.842
972.853
972.863
972.872
972.88
972.887
972.894
972.901
972.908
972.916
972.926
972.937
972.951
972.969
972.991
973.018
973.051
973.093
973.143
973.203
973.274
973.357
973.454
973.565
973.693
973.836
973.997
974.175
974.373
974.588
974.823
975.075
975.346
975.635
975.941
976.263
976.6
976.951
977.315
977.69
978.075
978.469
978.869
979.275
979.684
980.096
980.509
980.921
981.331
981.739
982.141
982.539
982.93
983.313
983.688
984.054
984.411
984.757
985.093
985.417
985.73
986.031
986.32
986.597
986.863
987.115
987.355
987.584
987.8
988.004
988.197
988.377
988.547
988.704
988.85
988.985
989.109
989.222
989.323
989.413
989.491
989.557
989.612
989.653
989.682
989.697
989.697
989.683
989.654
989.608
989.546
989.466
989.369
989.253
989.119
988.965
988.793
988.602
988.392
988.163
987.917
987.653
987.374
987.079
986.771
986.451
986.12
985.78
985.433
985.082
984.728
984.373
984.019
983.669
983.324
982.988
982.66
982.345
982.043
981.755
981.483
981.228
980.992
980.774
980.574
980.394
980.232
980.089
979.961
979.849
979.751
979.664
979.585
979.51
979.437
979.365
979.285
979.183
979.073
978.958
978.78
978.548
978.363
978.113
977.624
977.228
977.051
976.311
975.302
975.185
974.88
973.71
973.114
973.493
1018.82
1019.22
1018.76
1018.12
1017.95
1017.22
1016.86
1016.62
1016.08
1015.56
1015.29
1015.01
1014.64
1014.31
1014.06
1013.8
1013.53
1013.28
1013.04
1012.81
1012.57
1012.34
1012.1
1011.87
1011.63
1011.4
1011.15
1010.9
1010.65
1010.39
1010.12
1009.84
1009.55
1009.26
1008.95
1008.63
1008.3
1007.96
1007.6
1007.23
1006.84
1006.44
1006.02
1005.59
1005.14
1004.67
1004.18
1003.68
1003.16
1002.62
1002.06
1001.48
1000.88
1000.27
999.64
998.992
998.328
997.648
996.955
996.249
995.531
994.803
994.067
993.325
992.579
991.829
991.078
990.33
989.585
988.845
988.113
987.391
986.679
985.981
985.297
984.629
983.979
983.347
982.734
982.142
981.571
981.021
980.492
979.985
979.5
979.037
978.596
978.176
977.776
977.397
977.037
976.697
976.376
976.073
975.787
975.518
975.265
975.029
974.806
974.599
974.404
974.223
974.054
973.897
973.751
973.616
973.492
973.377
973.272
973.175
973.087
973.008
972.936
972.871
972.813
972.762
972.717
972.679
972.646
972.618
972.595
972.577
972.564
972.554
972.549
972.547
972.548
972.552
972.559
972.569
972.58
972.593
972.608
972.624
972.642
972.66
972.678
972.697
972.715
972.734
972.752
972.769
972.786
972.801
972.816
972.83
972.842
972.854
972.864
972.873
972.881
972.887
972.894
972.9
972.906
972.912
972.92
972.93
972.941
972.956
972.976
973
973.031
973.069
973.116
973.172
973.241
973.321
973.415
973.524
973.649
973.791
973.95
974.128
974.324
974.539
974.773
975.026
975.298
975.588
975.895
976.219
976.558
976.911
977.277
977.654
978.042
978.438
978.841
979.249
979.661
980.075
980.49
980.905
981.317
981.726
982.131
982.53
982.923
983.307
983.684
984.051
984.409
984.756
985.093
985.418
985.732
986.034
986.323
986.601
986.867
987.12
987.361
987.589
987.806
988.01
988.203
988.384
988.554
988.712
988.859
988.995
989.119
989.233
989.335
989.426
989.506
989.574
989.63
989.674
989.705
989.722
989.726
989.714
989.688
989.645
989.585
989.508
989.413
989.299
989.166
989.014
988.842
988.651
988.441
988.211
987.963
987.697
987.414
987.116
986.803
986.478
986.141
985.795
985.442
985.084
984.723
984.361
984.001
983.643
983.292
982.949
982.616
982.294
981.986
981.693
981.416
981.157
980.917
980.696
980.494
980.312
980.149
980.005
979.879
979.769
979.674
979.589
979.515
979.449
979.382
979.314
979.247
979.165
979.055
978.942
978.821
978.614
978.365
978.193
977.9
977.361
977.055
976.858
976.034
975.376
975.343
974.766
974.248
974.53
1018.55
1018.25
1018.03
1018.17
1017.54
1016.98
1016.89
1016.47
1015.98
1015.7
1015.42
1015.05
1014.72
1014.47
1014.21
1013.92
1013.66
1013.43
1013.19
1012.95
1012.71
1012.48
1012.24
1012.01
1011.77
1011.53
1011.29
1011.03
1010.78
1010.52
1010.24
1009.96
1009.68
1009.38
1009.07
1008.74
1008.41
1008.06
1007.7
1007.33
1006.94
1006.53
1006.11
1005.67
1005.21
1004.74
1004.25
1003.74
1003.21
1002.66
1002.09
1001.5
1000.9
1000.27
999.63
998.97
998.293
997.601
996.895
996.175
995.444
994.703
993.954
993.198
992.438
991.676
990.914
990.154
989.398
988.649
987.908
987.178
986.46
985.756
985.068
984.397
983.745
983.113
982.501
981.911
981.342
980.796
980.272
979.771
979.292
978.835
978.401
977.988
977.596
977.224
976.873
976.541
976.227
975.932
975.654
975.392
975.146
974.916
974.7
974.498
974.308
974.132
973.967
973.814
973.672
973.54
973.419
973.306
973.203
973.108
973.022
972.943
972.872
972.808
972.75
972.7
972.655
972.616
972.583
972.555
972.532
972.514
972.501
972.492
972.486
972.485
972.486
972.491
972.499
972.51
972.523
972.538
972.554
972.572
972.592
972.612
972.633
972.654
972.675
972.696
972.716
972.736
972.755
972.773
972.79
972.806
972.82
972.833
972.844
972.854
972.863
972.87
972.877
972.883
972.888
972.894
972.901
972.909
972.919
972.932
972.95
972.972
973
973.036
973.081
973.135
973.201
973.28
973.372
973.479
973.603
973.743
973.902
974.079
974.275
974.491
974.726
974.98
975.253
975.545
975.854
976.18
976.521
976.877
977.245
977.625
978.015
978.414
978.819
979.23
979.644
980.061
980.478
980.894
981.308
981.719
982.125
982.526
982.92
983.306
983.683
984.052
984.41
984.758
985.095
985.421
985.735
986.038
986.328
986.606
986.872
987.126
987.367
987.596
987.813
988.018
988.212
988.394
988.564
988.723
988.87
989.007
989.132
989.247
989.351
989.443
989.524
989.594
989.652
989.698
989.731
989.751
989.757
989.749
989.725
989.685
989.628
989.553
989.46
989.348
989.217
989.066
988.895
988.703
988.491
988.26
988.009
987.74
987.454
987.151
986.833
986.502
986.159
985.807
985.447
985.081
984.713
984.343
983.975
983.611
983.253
982.902
982.562
982.234
981.92
981.622
981.34
981.077
980.833
980.609
980.405
980.222
980.059
979.916
979.79
979.683
979.591
979.513
979.443
979.383
979.328
979.269
979.205
979.144
979.063
978.941
978.824
978.708
978.478
978.201
978.05
977.761
977.198
976.901
976.748
976.132
975.568
975.498
975.399
975.13
1018.08
1017.89
1017.77
1017.59
1017.21
1017.08
1016.68
1016.25
1016.05
1015.77
1015.39
1015.09
1014.86
1014.59
1014.3
1014.05
1013.82
1013.57
1013.32
1013.09
1012.86
1012.63
1012.39
1012.16
1011.92
1011.68
1011.43
1011.18
1010.93
1010.66
1010.39
1010.11
1009.82
1009.52
1009.2
1008.88
1008.54
1008.19
1007.83
1007.45
1007.06
1006.65
1006.22
1005.77
1005.31
1004.83
1004.33
1003.81
1003.27
1002.71
1002.13
1001.54
1000.92
1000.28
999.624
998.95
998.259
997.552
996.83
996.094
995.347
994.589
993.824
993.052
992.277
991.5
990.723
989.949
989.18
988.419
987.667
986.928
986.202
985.492
984.798
984.124
983.47
982.836
982.225
981.637
981.071
980.529
980.01
979.515
979.043
978.594
978.167
977.762
977.379
977.017
976.675
976.351
976.047
975.76
975.491
975.237
974.999
974.776
974.567
974.371
974.188
974.017
973.857
973.709
973.57
973.442
973.323
973.213
973.112
973.019
972.933
972.856
972.785
972.721
972.663
972.612
972.567
972.527
972.493
972.465
972.441
972.422
972.408
972.398
972.392
972.39
972.392
972.397
972.405
972.416
972.43
972.446
972.464
972.485
972.506
972.529
972.552
972.576
972.6
972.625
972.648
972.671
972.694
972.715
972.735
972.754
972.771
972.787
972.801
972.813
972.824
972.833
972.841
972.848
972.854
972.86
972.868
972.875
972.885
972.898
972.914
972.935
972.963
972.998
973.041
973.095
973.159
973.237
973.328
973.435
973.559
973.7
973.858
974.036
974.233
974.45
974.687
974.943
975.218
975.512
975.823
976.151
976.495
976.853
977.224
977.606
977.999
978.4
978.807
979.22
979.636
980.055
980.474
980.891
981.307
981.719
982.126
982.527
982.921
983.308
983.686
984.055
984.414
984.762
985.099
985.426
985.74
986.043
986.333
986.612
986.878
987.132
987.373
987.603
987.82
988.026
988.22
988.403
988.574
988.734
988.882
989.02
989.147
989.262
989.367
989.462
989.544
989.616
989.676
989.724
989.759
989.782
989.79
989.784
989.763
989.726
989.671
989.599
989.508
989.398
989.268
989.118
988.947
988.755
988.542
988.308
988.055
987.783
987.492
987.184
986.861
986.523
986.174
985.814
985.447
985.074
984.697
984.32
983.944
983.573
983.207
982.85
982.503
982.168
981.848
981.545
981.258
980.991
980.743
980.516
980.311
980.126
979.962
979.82
979.697
979.592
979.504
979.431
979.37
979.315
979.269
979.227
979.174
979.115
979.061
978.979
978.849
978.736
978.618
978.367
978.105
977.965
977.647
977.17
976.943
976.7
976.249
976.017
975.892
975.782
1017.55
1017.59
1017.5
1017.17
1017.06
1016.89
1016.49
1016.26
1016.03
1015.69
1015.42
1015.19
1014.92
1014.64
1014.41
1014.18
1013.93
1013.69
1013.47
1013.24
1013.01
1012.78
1012.55
1012.31
1012.08
1011.84
1011.59
1011.34
1011.08
1010.82
1010.55
1010.27
1009.97
1009.67
1009.36
1009.03
1008.69
1008.34
1007.97
1007.59
1007.19
1006.78
1006.35
1005.89
1005.42
1004.94
1004.43
1003.9
1003.35
1002.78
1002.19
1001.58
1000.95
1000.29
999.623
998.933
998.225
997.5
996.76
996.007
995.24
994.464
993.68
992.889
992.095
991.3
990.506
989.716
988.932
988.157
987.393
986.642
985.907
985.188
984.489
983.81
983.153
982.519
981.908
981.321
980.76
980.222
979.709
979.22
978.756
978.315
977.898
977.503
977.129
976.777
976.445
976.132
975.837
975.561
975.3
975.056
974.827
974.612
974.41
974.222
974.045
973.88
973.726
973.583
973.449
973.324
973.208
973.1
973.001
972.909
972.825
972.747
972.677
972.612
972.554
972.502
972.455
972.414
972.378
972.348
972.322
972.301
972.285
972.273
972.266
972.263
972.263
972.268
972.276
972.286
972.3
972.317
972.337
972.358
972.382
972.406
972.433
972.459
972.487
972.515
972.543
972.57
972.597
972.623
972.648
972.671
972.692
972.712
972.73
972.746
972.761
972.773
972.784
972.793
972.802
972.811
972.82
972.829
972.841
972.854
972.872
972.894
972.922
972.957
973.001
973.055
973.12
973.199
973.291
973.399
973.523
973.666
973.826
974.005
974.204
974.423
974.662
974.92
975.198
975.493
975.807
976.138
976.484
976.845
977.218
977.603
977.998
978.4
978.809
979.223
979.641
980.06
980.48
980.898
981.314
981.726
982.133
982.534
982.928
983.315
983.693
984.061
984.419
984.767
985.104
985.43
985.744
986.046
986.337
986.615
986.881
987.135
987.377
987.607
987.825
988.031
988.226
988.409
988.581
988.742
988.891
989.03
989.159
989.276
989.383
989.478
989.563
989.637
989.699
989.749
989.786
989.811
989.822
989.819
989.8
989.765
989.713
989.643
989.554
989.446
989.317
989.168
988.997
988.804
988.59
988.354
988.098
987.822
987.527
987.214
986.885
986.541
986.184
985.818
985.443
985.062
984.678
984.293
983.909
983.53
983.157
982.792
982.438
982.098
981.772
981.462
981.171
980.899
980.648
980.418
980.21
980.025
979.861
979.719
979.598
979.497
979.413
979.345
979.291
979.247
979.208
979.176
979.147
979.101
979.047
979.003
978.92
978.782
978.677
978.564
978.303
978.052
977.922
977.634
977.227
977.02
976.848
976.542
976.329
976.32
1017.24
1017.25
1017.15
1017.02
1016.89
1016.6
1016.42
1016.24
1015.92
1015.68
1015.48
1015.22
1014.95
1014.73
1014.51
1014.27
1014.04
1013.82
1013.6
1013.37
1013.15
1012.93
1012.7
1012.47
1012.24
1012
1011.76
1011.51
1011.25
1010.99
1010.72
1010.43
1010.14
1009.84
1009.53
1009.2
1008.86
1008.5
1008.13
1007.75
1007.35
1006.93
1006.49
1006.03
1005.55
1005.06
1004.54
1004
1003.44
1002.86
1002.26
1001.63
1000.98
1000.32
999.627
998.919
998.192
997.447
996.687
995.912
995.124
994.326
993.521
992.709
991.894
991.078
990.264
989.455
988.654
987.863
987.085
986.321
985.575
984.848
984.141
983.458
982.797
982.162
981.551
980.967
980.409
979.876
979.37
978.889
978.433
978.002
977.595
977.21
976.848
976.507
976.187
975.885
975.602
975.336
975.086
974.852
974.632
974.427
974.234
974.053
973.884
973.726
973.577
973.439
973.309
973.189
973.076
972.971
972.873
972.783
972.699
972.621
972.55
972.484
972.425
972.371
972.322
972.279
972.24
972.206
972.178
972.154
972.135
972.12
972.11
972.104
972.102
972.104
972.111
972.12
972.134
972.15
972.17
972.192
972.217
972.244
972.272
972.302
972.333
972.365
972.398
972.43
972.462
972.493
972.523
972.552
972.58
972.606
972.63
972.651
972.671
972.689
972.705
972.72
972.733
972.746
972.759
972.772
972.787
972.804
972.824
972.849
972.88
972.918
972.965
973.021
973.089
973.17
973.265
973.375
973.502
973.647
973.81
973.992
974.194
974.416
974.657
974.918
975.198
975.497
975.813
976.146
976.495
976.857
977.232
977.619
978.014
978.418
978.828
979.242
979.66
980.079
980.498
980.916
981.331
981.742
982.148
982.548
982.941
983.326
983.703
984.07
984.427
984.773
985.109
985.434
985.746
986.048
986.337
986.615
986.88
987.134
987.375
987.605
987.824
988.03
988.225
988.409
988.582
988.744
988.895
989.035
989.166
989.285
989.393
989.491
989.578
989.653
989.717
989.769
989.81
989.837
989.85
989.849
989.833
989.801
989.751
989.683
989.596
989.489
989.361
989.212
989.041
988.848
988.633
988.395
988.136
987.857
987.557
987.239
986.904
986.554
986.191
985.817
985.435
985.047
984.655
984.262
983.871
983.483
983.103
982.731
982.371
982.024
981.692
981.377
981.08
980.805
980.549
980.317
980.106
979.92
979.756
979.615
979.495
979.398
979.319
979.257
979.209
979.177
979.15
979.126
979.109
979.093
979.053
979.007
978.971
978.888
978.753
978.658
978.538
978.294
978.08
977.928
977.665
977.38
977.185
976.993
976.826
976.704
1017.02
1016.96
1016.89
1016.85
1016.67
1016.47
1016.35
1016.11
1015.88
1015.7
1015.47
1015.23
1015.02
1014.81
1014.58
1014.36
1014.15
1013.94
1013.72
1013.5
1013.29
1013.07
1012.85
1012.62
1012.39
1012.16
1011.92
1011.67
1011.42
1011.16
1010.89
1010.61
1010.32
1010.02
1009.7
1009.38
1009.03
1008.68
1008.31
1007.92
1007.51
1007.09
1006.64
1006.18
1005.7
1005.19
1004.66
1004.12
1003.54
1002.95
1002.33
1001.69
1001.03
1000.34
999.635
998.907
998.159
997.392
996.609
995.81
994.999
994.177
993.347
992.511
991.672
990.833
989.997
989.168
988.347
987.538
986.743
985.965
985.206
984.469
983.755
983.066
982.402
981.765
981.156
980.574
980.02
979.494
978.995
978.523
978.077
977.657
977.261
976.889
976.539
976.21
975.903
975.613
975.343
975.089
974.851
974.628
974.419
974.223
974.039
973.867
973.706
973.555
973.413
973.28
973.156
973.039
972.93
972.827
972.731
972.642
972.558
972.481
972.408
972.341
972.28
972.223
972.171
972.124
972.082
972.045
972.012
971.984
971.961
971.941
971.927
971.917
971.911
971.91
971.913
971.92
971.932
971.947
971.966
971.987
972.013
972.041
972.071
972.104
972.138
972.174
972.211
972.249
972.287
972.324
972.361
972.398
972.432
972.466
972.497
972.527
972.555
972.58
972.603
972.625
972.646
972.666
972.685
972.705
972.726
972.749
972.775
972.805
972.842
972.885
972.936
972.998
973.07
973.156
973.255
973.37
973.501
973.65
973.817
974.003
974.209
974.434
974.679
974.943
975.226
975.527
975.846
976.181
976.531
976.894
977.271
977.658
978.054
978.457
978.866
979.28
979.697
980.114
980.532
980.948
981.361
981.77
982.173
982.571
982.961
983.343
983.717
984.081
984.436
984.78
985.113
985.435
985.746
986.045
986.334
986.61
986.874
987.126
987.367
987.597
987.815
988.021
988.217
988.401
988.575
988.738
988.89
989.032
989.164
989.285
989.395
989.495
989.583
989.661
989.728
989.783
989.825
989.855
989.87
989.872
989.858
989.828
989.78
989.715
989.629
989.524
989.397
989.249
989.078
988.885
988.669
988.429
988.168
987.885
987.581
987.259
986.918
986.562
986.193
985.813
985.423
985.028
984.628
984.228
983.829
983.435
983.047
982.668
982.301
981.948
981.61
981.289
980.988
980.708
980.449
980.213
980
979.812
979.648
979.508
979.391
979.296
979.222
979.167
979.127
979.102
979.09
979.082
979.073
979.072
979.068
979.035
978.998
978.973
978.891
978.762
978.677
978.559
978.337
978.147
978.001
977.777
977.534
977.37
977.22
977.028
1016.78
1016.76
1016.72
1016.62
1016.5
1016.4
1016.22
1016.02
1015.87
1015.67
1015.45
1015.26
1015.07
1014.85
1014.65
1014.45
1014.25
1014.04
1013.83
1013.63
1013.42
1013.21
1012.99
1012.77
1012.55
1012.32
1012.09
1011.84
1011.59
1011.34
1011.07
1010.79
1010.5
1010.2
1009.89
1009.56
1009.22
1008.86
1008.49
1008.1
1007.69
1007.26
1006.81
1006.34
1005.85
1005.34
1004.8
1004.24
1003.66
1003.05
1002.42
1001.76
1001.08
1000.38
999.648
998.898
998.126
997.336
996.527
995.703
994.865
994.016
993.158
992.295
991.43
990.565
989.704
988.851
988.008
987.179
986.366
985.572
984.8
984.052
983.329
982.634
981.967
981.329
980.721
980.143
979.594
979.075
978.585
978.123
977.689
977.281
976.897
976.539
976.203
975.888
975.594
975.319
975.062
974.821
974.596
974.385
974.188
974.003
973.83
973.667
973.515
973.372
973.237
973.11
972.99
972.878
972.772
972.672
972.578
972.49
972.407
972.328
972.255
972.185
972.121
972.062
972.006
971.955
971.908
971.866
971.828
971.794
971.765
971.741
971.721
971.705
971.694
971.688
971.687
971.69
971.698
971.71
971.726
971.747
971.772
971.8
971.832
971.866
971.904
971.943
971.985
972.028
972.071
972.116
972.16
972.205
972.248
972.291
972.332
972.372
972.409
972.444
972.478
972.51
972.541
972.571
972.6
972.629
972.659
972.691
972.726
972.765
972.81
972.86
972.919
972.988
973.068
973.16
973.266
973.387
973.524
973.679
973.851
974.042
974.252
974.482
974.73
974.998
975.284
975.587
975.908
976.245
976.596