# vtk DataFile Version 2.0
LBE mesh
ASCII
DATASET STRUCTURED_POINTS
DIMENSIONS 300 100 1
ASPECT_RATIO 1 1 1
ORIGIN 0 0 0
POINT_DATA 30000
SCALARS rho double 1
LOOKUP_TABLE default
1047.27
1015.61
1014.88
1021.32
1019.47
1015.55
1015.34
1015.83
1015.04
1014.23
1014.04
1013.86
1013.47
1013.14
1012.92
1012.69
1012.43
1012.19
1011.97
1011.74
1011.51
1011.28
1011.06
1010.83
1010.59
1010.35
1010.11
1009.87
1009.61
1009.35
1009.09
1008.81
1008.52
1008.23
1007.92
1007.61
1007.28
1006.94
1006.59
1006.22
1005.84
1005.45
1005.04
1004.62
1004.18
1003.73
1003.26
1002.77
1002.27
1001.74
1001.21
1000.66
1000.09
999.501
998.901
998.286
997.657
997.014
996.36
995.694
995.018
994.333
993.641
992.943
992.24
991.535
990.829
990.125
989.423
988.725
988.034
987.351
986.678
986.015
985.367
984.732
984.113
983.512
982.928
982.363
981.818
981.293
980.79
980.308
979.847
979.409
978.992
978.598
978.224
977.873
977.542
977.232
976.943
976.673
976.422
976.19
975.976
975.779
975.599
975.435
975.287
975.153
975.033
974.927
974.833
974.752
974.682
974.624
974.576
974.538
974.508
974.488
974.476
974.471
974.474
974.483
974.499
974.521
974.547
974.578
974.614
974.654
974.698
974.744
974.794
974.845
974.899
974.955
975.012
975.07
975.129
975.188
975.247
975.306
975.365
975.422
975.478
975.533
975.587
975.638
975.687
975.734
975.778
975.82
975.858
975.893
975.924
975.952
975.977
975.997
976.014
976.026
976.035
976.039
976.04
976.036
976.029
976.018
976.005
975.989
975.972
975.954
975.936
975.919
975.905
975.894
975.888
975.888
975.896
975.914
975.942
975.982
976.036
976.106
976.191
976.294
976.416
976.556
976.716
976.896
977.096
977.316
977.556
977.814
978.09
978.383
978.693
979.016
979.353
979.701
980.059
980.425
980.798
981.176
981.556
981.938
982.32
982.7
983.076
983.448
983.813
984.172
984.523
984.865
985.198
985.52
985.831
986.131
986.419
986.695
986.959
987.21
987.449
987.675
987.889
988.091
988.281
988.458
988.624
988.779
988.922
989.055
989.176
989.286
989.386
989.476
989.555
989.624
989.683
989.732
989.77
989.798
989.815
989.821
989.816
989.8
989.771
989.729
989.675
989.607
989.527
989.431
989.321
989.197
989.057
988.903
988.732
988.546
988.344
988.128
987.896
987.65
987.389
987.115
986.828
986.528
986.218
985.898
985.569
985.232
984.888
984.54
984.188
983.834
983.478
983.123
982.769
982.42
982.074
981.734
981.401
981.075
980.757
980.449
980.149
979.859
979.577
979.304
979.037
978.778
978.523
978.267
978.009
977.755
977.488
977.187
976.89
976.595
976.191
975.709
975.374
974.909
973.867
973.142
973.248
971.282
967.51
969.561
970.422
947.324
1030.18
1026.63
1022.53
1017.32
1017.49
1017.63
1016.44
1015.26
1015.01
1014.74
1014.24
1013.82
1013.57
1013.3
1013
1012.73
1012.49
1012.25
1012.01
1011.77
1011.54
1011.31
1011.08
1010.84
1010.61
1010.37
1010.12
1009.87
1009.61
1009.35
1009.08
1008.8
1008.51
1008.22
1007.91
1007.59
1007.26
1006.92
1006.56
1006.2
1005.82
1005.42
1005.01
1004.58
1004.14
1003.69
1003.22
1002.73
1002.22
1001.7
1001.16
1000.61
1000.04
999.455
998.855
998.239
997.611
996.969
996.315
995.65
994.975
994.291
993.6
992.904
992.204
991.501
990.798
990.096
989.396
988.702
988.013
987.333
986.663
986.004
985.359
984.728
984.112
983.513
982.933
982.371
981.829
981.307
980.806
980.327
979.869
979.433
979.018
978.626
978.254
977.904
977.575
977.267
976.978
976.71
976.46
976.228
976.015
975.819
975.639
975.476
975.328
975.194
975.075
974.969
974.875
974.794
974.725
974.666
974.618
974.58
974.551
974.53
974.518
974.514
974.517
974.526
974.542
974.563
974.59
974.621
974.657
974.697
974.741
974.787
974.837
974.889
974.943
974.999
975.055
975.114
975.172
975.231
975.291
975.349
975.407
975.465
975.521
975.575
975.628
975.679
975.728
975.774
975.818
975.858
975.896
975.931
975.962
975.989
976.013
976.033
976.049
976.061
976.069
976.073
976.074
976.07
976.062
976.052
976.039
976.023
976.006
975.988
975.97
975.953
975.939
975.928
975.921
975.921
975.929
975.945
975.972
976.012
976.065
976.132
976.216
976.317
976.436
976.574
976.732
976.91
977.107
977.324
977.56
977.815
978.089
978.379
978.685
979.005
979.34
979.686
980.041
980.405
980.776
981.151
981.53
981.911
982.291
982.669
983.045
983.416
983.781
984.139
984.49
984.832
985.164
985.486
985.797
986.098
986.386
986.662
986.926
987.178
987.418
987.645
987.859
988.062
988.252
988.43
988.597
988.752
988.896
989.029
989.151
989.262
989.362
989.452
989.532
989.602
989.661
989.71
989.749
989.777
989.795
989.802
989.797
989.781
989.753
989.713
989.659
989.593
989.513
989.419
989.311
989.188
989.05
988.897
988.728
988.544
988.344
988.129
987.899
987.654
987.395
987.123
986.837
986.539
986.23
985.911
985.583
985.246
984.903
984.555
984.203
983.848
983.492
983.136
982.782
982.43
982.083
981.741
981.406
981.077
980.757
980.445
980.141
979.847
979.561
979.283
979.012
978.745
978.483
978.224
977.961
977.69
977.415
977.13
976.806
976.453
976.108
975.685
975.114
974.581
974.107
973.098
971.8
971.292
970.17
966.088
962.424
960.664
1022.09
1026.88
1022.2
1017.89
1018.12
1017.82
1016.42
1015.46
1015.25
1014.88
1014.34
1013.94
1013.68
1013.38
1013.08
1012.8
1012.56
1012.31
1012.06
1011.82
1011.59
1011.35
1011.11
1010.87
1010.63
1010.39
1010.14
1009.89
1009.63
1009.36
1009.09
1008.81
1008.52
1008.22
1007.91
1007.59
1007.25
1006.91
1006.55
1006.19
1005.8
1005.41
1004.99
1004.57
1004.12
1003.67
1003.19
1002.7
1002.2
1001.67
1001.13
1000.58
1000.01
999.421
998.82
998.203
997.573
996.93
996.276
995.61
994.934
994.25
993.56
992.863
992.163
991.461
990.758
990.056
989.358
988.664
987.977
987.299
986.63
985.973
985.329
984.7
984.087
983.491
982.912
982.353
981.814
981.294
980.797
980.32
979.864
979.431
979.019
978.628
978.259
977.911
977.585
977.278
976.992
976.725
976.476
976.247
976.035
975.84
975.662
975.499
975.352
975.22
975.101
974.996
974.903
974.823
974.754
974.696
974.648
974.611
974.582
974.562
974.551
974.547
974.55
974.56
974.576
974.598
974.625
974.657
974.693
974.734
974.778
974.825
974.875
974.927
974.982
975.038
975.095
975.153
975.213
975.272
975.331
975.39
975.448
975.506
975.562
975.616
975.669
975.72
975.768
975.814
975.858
975.898
975.935
975.97
976
976.027
976.05
976.07
976.086
976.097
976.105
976.108
976.108
976.104
976.096
976.085
976.071
976.055
976.038
976.019
976
975.982
975.966
975.954
975.946
975.944
975.949
975.964
975.989
976.025
976.075
976.14
976.221
976.319
976.436
976.57
976.725
976.9
977.095
977.309
977.543
977.796
978.067
978.355
978.66
978.979
979.312
979.657
980.012
980.375
980.745
981.12
981.499
981.879
982.259
982.638
983.013
983.385
983.751
984.109
984.461
984.803
985.136
985.459
985.771
986.071
986.36
986.637
986.902
987.154
987.394
987.622
987.837
988.04
988.231
988.41
988.577
988.733
988.877
989.01
989.132
989.244
989.344
989.435
989.515
989.585
989.645
989.694
989.734
989.763
989.781
989.789
989.785
989.77
989.744
989.705
989.653
989.588
989.51
989.418
989.312
989.19
989.054
988.903
988.736
988.553
988.355
988.142
987.913
987.67
987.412
987.141
986.856
986.558
986.25
985.93
985.602
985.265
984.922
984.573
984.219
983.863
983.505
983.148
982.791
982.437
982.087
981.743
981.404
981.073
980.749
980.433
980.126
979.828
979.538
979.256
978.982
978.713
978.445
978.182
977.919
977.643
977.357
977.077
976.765
976.38
976.016
975.677
975.091
974.371
974.068
973.448
971.53
970.716
971.609
967.43
962.053
966.336
1021.81
1020.53
1019.98
1021.15
1018.63
1016.52
1016.47
1016.37
1015.45
1014.73
1014.49
1014.21
1013.79
1013.44
1013.18
1012.92
1012.63
1012.37
1012.13
1011.89
1011.64
1011.4
1011.16
1010.92
1010.67
1010.43
1010.18
1009.92
1009.66
1009.39
1009.11
1008.83
1008.54
1008.24
1007.92
1007.6
1007.27
1006.92
1006.56
1006.19
1005.81
1005.41
1005
1004.57
1004.12
1003.66
1003.19
1002.69
1002.18
1001.66
1001.12
1000.56
999.987
999.398
998.793
998.174
997.542
996.896
996.238
995.569
994.891
994.204
993.511
992.812
992.11
991.405
990.701
989.998
989.298
988.603
987.916
987.237
986.568
985.912
985.269
984.641
984.029
983.434
982.858
982.301
981.764
981.247
980.752
980.278
979.826
979.395
978.986
978.599
978.233
977.888
977.565
977.261
976.978
976.714
976.468
976.241
976.031
975.838
975.662
975.502
975.357
975.226
975.109
975.005
974.915
974.835
974.768
974.711
974.664
974.628
974.6
974.581
974.571
974.567
974.571
974.582
974.599
974.622
974.649
974.682
974.719
974.76
974.805
974.853
974.903
974.957
975.012
975.069
975.127
975.185
975.245
975.305
975.365
975.424
975.483
975.541
975.598
975.652
975.705
975.756
975.805
975.851
975.895
975.935
975.972
976.006
976.037
976.064
976.087
976.106
976.121
976.132
976.139
976.142
976.142
976.137
976.128
976.116
976.101
976.084
976.065
976.044
976.023
976.003
975.985
975.969
975.959
975.953
975.956
975.967
975.988
976.021
976.068
976.128
976.206
976.3
976.413
976.545
976.697
976.869
977.061
977.273
977.505
977.757
978.027
978.315
978.619
978.939
979.272
979.617
979.972
980.336
980.707
981.084
981.463
981.845
982.226
982.606
982.983
983.355
983.722
984.082
984.435
984.779
985.113
985.436
985.749
986.051
986.341
986.619
986.884
987.137
987.378
987.606
987.821
988.025
988.216
988.395
988.563
988.719
988.863
988.996
989.119
989.231
989.331
989.422
989.503
989.573
989.634
989.684
989.724
989.755
989.774
989.783
989.781
989.767
989.742
989.705
989.655
989.592
989.516
989.426
989.322
989.202
989.068
988.919
988.754
988.574
988.377
988.165
987.938
987.696
987.439
987.167
986.882
986.585
986.276
985.956
985.626
985.288
984.943
984.591
984.236
983.877
983.517
983.156
982.797
982.44
982.087
981.739
981.397
981.062
980.735
980.416
980.106
979.805
979.513
979.228
978.95
978.68
978.413
978.145
977.879
977.614
977.331
977.024
976.727
976.409
975.981
975.545
975.206
974.62
973.705
973.254
972.862
971
969.414
969.587
968.86
967.341
1021.8
1019.61
1019.53
1019.4
1017.91
1017.48
1016.91
1016.05
1015.42
1015.11
1014.72
1014.26
1013.89
1013.61
1013.31
1013.01
1012.74
1012.48
1012.23
1011.97
1011.72
1011.48
1011.23
1010.99
1010.74
1010.49
1010.24
1009.98
1009.71
1009.44
1009.16
1008.88
1008.58
1008.28
1007.97
1007.64
1007.31
1006.96
1006.6
1006.22
1005.84
1005.44
1005.02
1004.59
1004.14
1003.68
1003.2
1002.7
1002.19
1001.66
1001.12
1000.55
999.976
999.382
998.773
998.149
997.511
996.86
996.197
995.523
994.84
994.148
993.449
992.746
992.038
991.329
990.621
989.914
989.21
988.512
987.822
987.141
986.471
985.813
985.17
984.541
983.93
983.336
982.762
982.207
981.672
981.159
980.666
980.196
979.747
979.321
978.916
978.533
978.171
977.831
977.511
977.212
976.933
976.672
976.431
976.207
976.001
975.812
975.639
975.482
975.339
975.211
975.096
974.995
974.906
974.829
974.763
974.708
974.663
974.628
974.601
974.584
974.574
974.572
974.577
974.589
974.607
974.63
974.658
974.692
974.73
974.772
974.818
974.867
974.918
974.972
975.028
975.086
975.145
975.205
975.265
975.326
975.387
975.447
975.507
975.566
975.623
975.679
975.732
975.784
975.833
975.88
975.924
975.965
976.002
976.037
976.067
976.094
976.117
976.137
976.152
976.162
976.169
976.171
976.169
976.164
976.154
976.141
976.124
976.105
976.083
976.06
976.036
976.013
975.992
975.973
975.958
975.949
975.947
975.953
975.97
975.998
976.04
976.097
976.171
976.261
976.371
976.5
976.649
976.818
977.009
977.219
977.451
977.702
977.972
978.26
978.566
978.886
979.221
979.567
979.924
980.291
980.664
981.042
981.424
981.807
982.191
982.573
982.952
983.327
983.695
984.057
984.412
984.757
985.092
985.417
985.732
986.034
986.325
986.604
986.87
987.124
987.365
987.594
987.81
988.014
988.205
988.385
988.553
988.709
988.853
988.987
989.11
989.222
989.323
989.414
989.495
989.567
989.628
989.679
989.72
989.751
989.772
989.782
989.782
989.77
989.747
989.712
989.664
989.604
989.53
989.443
989.34
989.224
989.092
988.945
988.782
988.603
988.408
988.197
987.971
987.729
987.472
987.201
986.916
986.617
986.307
985.985
985.654
985.314
984.966
984.612
984.253
983.891
983.528
983.164
982.801
982.441
982.084
981.732
981.387
981.048
980.718
980.397
980.084
979.78
979.486
979.201
978.922
978.65
978.385
978.121
977.852
977.587
977.322
977.023
976.702
976.411
976.062
975.563
975.151
974.845
974.044
973.098
973.04
972.3
970.161
969.98
970.238
968.788
1019.71
1019.72
1019.29
1017.8
1017.92
1017.76
1016.58
1015.94
1015.76
1015.33
1014.74
1014.36
1014.1
1013.77
1013.42
1013.14
1012.88
1012.61
1012.34
1012.08
1011.84
1011.59
1011.34
1011.09
1010.84
1010.58
1010.32
1010.06
1009.8
1009.52
1009.24
1008.95
1008.66
1008.35
1008.03
1007.71
1007.37
1007.02
1006.66
1006.28
1005.89
1005.49
1005.07
1004.63
1004.18
1003.71
1003.23
1002.73
1002.21
1001.68
1001.13
1000.56
999.974
999.374
998.758
998.127
997.482
996.823
996.153
995.471
994.779
994.079
993.373
992.661
991.946
991.23
990.514
989.8
989.091
988.388
987.693
987.008
986.334
985.674
985.028
984.399
983.787
983.194
982.621
982.068
981.535
981.025
980.536
980.07
979.626
979.204
978.804
978.426
978.07
977.735
977.421
977.127
976.853
976.598
976.361
976.142
975.941
975.756
975.588
975.435
975.296
975.172
975.061
974.962
974.876
974.801
974.737
974.684
974.641
974.608
974.583
974.567
974.559
974.557
974.564
974.576
974.595
974.619
974.648
974.683
974.722
974.764
974.811
974.86
974.913
974.967
975.025
975.083
975.143
975.204
975.266
975.328
975.39
975.452
975.513
975.573
975.632
975.689
975.744
975.797
975.847
975.895
975.94
975.982
976.021
976.056
976.087
976.114
976.138
976.157
976.172
976.183
976.189
976.191
976.188
976.181
976.17
976.155
976.136
976.115
976.09
976.064
976.037
976.011
975.985
975.962
975.942
975.928
975.922
975.923
975.935
975.959
975.996
976.049
976.118
976.205
976.312
976.438
976.585
976.753
976.942
977.152
977.383
977.635
977.906
978.196
978.503
978.826
979.162
979.512
979.872
980.241
980.617
980.998
981.383
981.769
982.156
982.54
982.922
983.299
983.67
984.034
984.39
984.737
985.074
985.401
985.716
986.02
986.312
986.591
986.858
987.113
987.355
987.584
987.801
988.005
988.197
988.377
988.544
988.701
988.846
988.98
989.103
989.215
989.317
989.409
989.491
989.563
989.625
989.677
989.719
989.752
989.774
989.786
989.788
989.778
989.757
989.724
989.679
989.622
989.551
989.466
989.366
989.252
989.123
988.978
988.817
988.64
988.446
988.237
988.011
987.77
987.513
987.241
986.955
986.655
986.343
986.019
985.685
985.342
984.991
984.634
984.271
983.906
983.538
983.17
982.804
982.44
982.079
981.724
981.375
981.033
980.7
980.376
980.062
979.757
979.461
979.175
978.898
978.627
978.361
978.103
977.845
977.575
977.309
977.049
976.741
976.393
976.105
975.766
975.203
974.743
974.509
973.726
972.677
972.509
972.156
970.944
970.288
970.589
1018.66
1019.03
1018.55
1017.89
1017.69
1016.94
1016.56
1016.3
1015.73
1015.2
1014.9
1014.6
1014.21
1013.86
1013.58
1013.31
1013.01
1012.74
1012.48
1012.22
1011.97
1011.71
1011.46
1011.21
1010.96
1010.7
1010.44
1010.18
1009.91
1009.63
1009.35
1009.06
1008.76
1008.45
1008.13
1007.8
1007.46
1007.11
1006.74
1006.36
1005.97
1005.56
1005.14
1004.7
1004.24
1003.77
1003.28
1002.77
1002.25
1001.71
1001.15
1000.58
999.983
999.374
998.748
998.108
997.453
996.784
996.103
995.41
994.708
993.997
993.28
992.557
991.832
991.106
990.38
989.658
988.94
988.229
987.527
986.836
986.158
985.493
984.844
984.213
983.6
983.007
982.434
981.882
981.353
980.845
980.361
979.899
979.46
979.044
978.65
978.278
977.929
977.6
977.293
977.005
976.738
976.489
976.259
976.046
975.851
975.672
975.509
975.361
975.227
975.107
974.999
974.905
974.822
974.75
974.69
974.639
974.599
974.567
974.544
974.529
974.522
974.522
974.529
974.542
974.561
974.586
974.616
974.651
974.69
974.733
974.78
974.83
974.883
974.939
974.996
975.056
975.117
975.179
975.242
975.305
975.369
975.432
975.494
975.556
975.617
975.676
975.732
975.787
975.84
975.889
975.936
975.98
976.02
976.056
976.089
976.118
976.142
976.162
976.177
976.188
976.194
976.196
976.192
976.184
976.172
976.155
976.135
976.111
976.083
976.054
976.024
975.993
975.964
975.936
975.912
975.893
975.881
975.878
975.885
975.905
975.938
975.986
976.052
976.136
976.24
976.364
976.509
976.676
976.865
977.076
977.308
977.561
977.834
978.126
978.436
978.761
979.101
979.454
979.817
980.19
980.569
980.954
981.342
981.731
982.121
982.509
982.893
983.272
983.646
984.012
984.37
984.718
985.057
985.385
985.702
986.007
986.299
986.58
986.848
987.103
987.345
987.575
987.792
987.997
988.189
988.369
988.537
988.694
988.839
988.974
989.097
989.21
989.313
989.405
989.488
989.561
989.624
989.678
989.722
989.756
989.78
989.794
989.797
989.79
989.772
989.742
989.7
989.644
989.576
989.494
989.397
989.286
989.159
989.017
988.858
988.682
988.49
988.282
988.057
987.815
987.558
987.285
986.998
986.696
986.382
986.056
985.719
985.373
985.018
984.657
984.291
983.921
983.549
983.178
982.807
982.439
982.075
981.715
981.363
981.019
980.684
980.357
980.041
979.736
979.44
979.154
978.878
978.611
978.349
978.091
977.843
977.589
977.319
977.059
976.804
976.478
976.124
975.859
975.487
974.881
974.513
974.257
973.386
972.673
972.569
971.923
971.317
971.483
1018.38
1018.07
1017.82
1017.94
1017.29
1016.7
1016.59
1016.15
1015.63
1015.33
1015.04
1014.64
1014.29
1014.02
1013.73
1013.43
1013.15
1012.89
1012.63
1012.37
1012.11
1011.86
1011.61
1011.35
1011.1
1010.84
1010.58
1010.31
1010.04
1009.76
1009.48
1009.19
1008.88
1008.57
1008.25
1007.92
1007.58
1007.22
1006.85
1006.47
1006.07
1005.66
1005.23
1004.79
1004.32
1003.85
1003.35
1002.84
1002.31
1001.76
1001.19
1000.6
1000
999.381
998.744
998.091
997.424
996.743
996.048
995.342
994.627
993.902
993.171
992.435
991.697
990.958
990.22
989.486
988.757
988.036
987.326
986.626
985.941
985.271
984.618
983.984
983.369
982.775
982.202
981.652
981.125
980.621
980.141
979.684
979.251
978.841
978.454
978.09
977.748
977.427
977.127
976.848
976.589
976.347
976.125
975.92
975.731
975.559
975.402
975.26
975.132
975.016
974.914
974.824
974.745
974.677
974.62
974.572
974.534
974.504
974.483
974.469
974.463
974.464
974.472
974.485
974.505
974.53
974.56
974.594
974.633
974.676
974.723
974.773
974.826
974.881
974.939
974.998
975.06
975.123
975.187
975.252
975.316
975.38
975.445
975.508
975.571
975.632
975.691
975.749
975.804
975.856
975.905
975.951
975.994
976.033
976.068
976.098
976.124
976.145
976.162
976.173
976.18
976.182
976.178
976.169
976.157
976.138
976.116
976.09
976.06
976.028
975.995
975.961
975.927
975.896
975.867
975.844
975.828
975.821
975.824
975.839
975.869
975.914
975.977
976.059
976.161
976.284
976.429
976.596
976.785
976.997
977.231
977.486
977.761
978.056
978.369
978.698
979.042
979.398
979.765
980.141
980.524
980.912
981.304
981.696
982.089
982.479
982.866
983.247
983.623
983.991
984.351
984.701
985.041
985.37
985.688
985.993
986.287
986.568
986.836
987.092
987.335
987.565
987.782
987.987
988.18
988.36
988.529
988.686
988.832
988.967
989.091
989.205
989.308
989.402
989.486
989.56
989.625
989.68
989.725
989.761
989.788
989.804
989.809
989.805
989.789
989.762
989.722
989.67
989.605
989.526
989.432
989.324
989.2
989.059
988.903
988.729
988.539
988.331
988.107
987.865
987.608
987.334
987.045
986.741
986.425
986.096
985.756
985.406
985.047
984.682
984.312
983.938
983.562
983.186
982.811
982.439
982.072
981.709
981.354
981.007
980.669
980.341
980.024
979.718
979.423
979.138
978.863
978.6
978.346
978.093
977.843
977.607
977.362
977.089
976.835
976.595
976.256
975.884
975.647
975.285
974.658
974.294
974.074
973.392
972.748
972.585
972.372
971.954
1017.92
1017.7
1017.56
1017.36
1016.96
1016.8
1016.39
1015.93
1015.71
1015.41
1015
1014.68
1014.44
1014.14
1013.82
1013.55
1013.3
1013.04
1012.77
1012.52
1012.27
1012.02
1011.76
1011.51
1011.25
1011
1010.73
1010.47
1010.19
1009.92
1009.63
1009.34
1009.03
1008.72
1008.4
1008.06
1007.72
1007.36
1006.98
1006.6
1006.2
1005.78
1005.34
1004.89
1004.43
1003.94
1003.44
1002.92
1002.38
1001.82
1001.24
1000.64
1000.03
999.396
998.746
998.079
997.397
996.7
995.99
995.268
994.536
993.795
993.048
992.296
991.541
990.787
990.034
989.286
988.544
987.811
987.089
986.38
985.686
985.01
984.351
983.712
983.095
982.5
981.927
981.379
980.855
980.355
979.879
979.429
979.002
978.599
978.22
977.864
977.53
977.219
976.928
976.658
976.407
976.175
975.961
975.764
975.583
975.419
975.269
975.134
975.012
974.903
974.806
974.721
974.647
974.583
974.529
974.484
974.448
974.421
974.401
974.389
974.384
974.385
974.393
974.406
974.426
974.45
974.479
974.512
974.55
974.592
974.638
974.687
974.738
974.793
974.85
974.909
974.971
975.033
975.098
975.162
975.228
975.294
975.359
975.425
975.489
975.553
975.615
975.675
975.732
975.788
975.84
975.89
975.936
975.978
976.015
976.049
976.078
976.102
976.12
976.134
976.142
976.145
976.142
976.134
976.121
976.102
976.079
976.051
976.02
975.986
975.95
975.913
975.877
975.842
975.811
975.784
975.765
975.754
975.754
975.767
975.794
975.837
975.899
975.979
976.08
976.204
976.349
976.516
976.707
976.921
977.157
977.415
977.694
977.992
978.308
978.641
978.988
979.348
979.719
980.099
980.485
980.876
981.271
981.666
982.061
982.454
982.842
983.226
983.603
983.972
984.333
984.684
985.025
985.354
985.672
985.979
986.272
986.554
986.823
987.078
987.321
987.551
987.769
987.974
988.167
988.348
988.517
988.675
988.822
988.957
989.082
989.197
989.302
989.397
989.482
989.558
989.625
989.681
989.729
989.767
989.796
989.814
989.823
989.82
989.807
989.783
989.747
989.698
989.635
989.56
989.469
989.363
989.242
989.104
988.95
988.779
988.59
988.383
988.159
987.918
987.66
987.385
987.095
986.79
986.47
986.138
985.795
985.441
985.079
984.71
984.336
983.958
983.578
983.197
982.818
982.443
982.071
981.706
981.348
980.998
980.658
980.329
980.011
979.705
979.41
979.129
978.858
978.595
978.345
978.105
977.863
977.625
977.402
977.165
976.894
976.653
976.42
976.07
975.718
975.496
975.105
974.56
974.254
973.93
973.386
973.044
972.787
972.494
1017.39
1017.4
1017.29
1016.94
1016.82
1016.62
1016.19
1015.95
1015.69
1015.33
1015.04
1014.79
1014.5
1014.2
1013.94
1013.69
1013.42
1013.16
1012.92
1012.67
1012.42
1012.17
1011.92
1011.67
1011.42
1011.16
1010.9
1010.63
1010.36
1010.08
1009.8
1009.5
1009.2
1008.88
1008.56
1008.22
1007.87
1007.51
1007.14
1006.75
1006.34
1005.92
1005.48
1005.02
1004.55
1004.06
1003.54
1003.01
1002.46
1001.89
1001.3
1000.69
1000.07
999.419
998.753
998.07
997.371
996.657
995.929
995.188
994.437
993.677
992.91
992.139
991.366
990.593
989.823
989.058
988.301
987.554
986.819
986.099
985.396
984.71
984.046
983.402
982.781
982.185
981.612
981.065
980.544
980.048
979.578
979.134
978.715
978.32
977.95
977.603
977.279
976.978
976.697
976.436
976.196
975.974
975.769
975.582
975.411
975.255
975.114
974.986
974.871
974.769
974.678
974.598
974.529
974.47
974.419
974.378
974.345
974.319
974.301
974.29
974.286
974.287
974.294
974.307
974.325
974.348
974.375
974.407
974.443
974.483
974.526
974.573
974.623
974.675
974.73
974.788
974.848
974.909
974.972
975.037
975.102
975.168
975.235
975.301
975.367
975.433
975.497
975.56
975.621
975.68
975.736
975.79
975.839
975.885
975.927
975.965
975.998
976.026
976.048
976.064
976.075
976.08
976.08
976.073
976.062
976.044
976.021
975.994
975.962
975.927
975.89
975.852
975.814
975.778
975.745
975.717
975.695
975.683
975.682
975.693
975.719
975.762
975.823
975.903
976.005
976.129
976.276
976.445
976.638
976.855
977.094
977.355
977.637
977.939
978.258
978.594
978.945
979.309
979.683
980.065
980.455
980.849
981.245
981.643
982.04
982.434
982.824
983.208
983.586
983.956
984.317
984.668
985.009
985.338
985.656
985.962
986.255
986.536
986.805
987.06
987.303
987.533
987.751
987.956
988.149
988.33
988.5
988.658
988.806
988.943
989.069
989.185
989.291
989.388
989.475
989.553
989.621
989.681
989.731
989.771
989.802
989.823
989.834
989.835
989.825
989.804
989.771
989.725
989.666
989.593
989.506
989.403
989.285
989.15
988.998
988.829
988.641
988.436
988.213
987.972
987.714
987.438
987.147
986.839
986.518
986.183
985.836
985.479
985.113
984.74
984.362
983.98
983.596
983.212
982.829
982.45
982.075
981.707
981.346
980.995
980.653
980.322
980.004
979.698
979.405
979.124
978.857
978.601
978.353
978.119
977.895
977.664
977.437
977.233
977.004
976.734
976.509
976.291
975.937
975.598
975.386
975.021
974.531
974.231
973.952
973.523
973.164
972.945
1017.08
1017.07
1016.95
1016.8
1016.64
1016.33
1016.13
1015.93
1015.59
1015.32
1015.1
1014.82
1014.53
1014.29
1014.05
1013.79
1013.54
1013.3
1013.06
1012.81
1012.57
1012.33
1012.08
1011.83
1011.58
1011.33
1011.07
1010.81
1010.54
1010.26
1009.97
1009.68
1009.38
1009.06
1008.74
1008.4
1008.05
1007.68
1007.31
1006.91
1006.5
1006.08
1005.63
1005.17
1004.69
1004.19
1003.67
1003.12
1002.56
1001.98
1001.38
1000.76
1000.11
999.448
998.766
998.065
997.347
996.613
995.864
995.102
994.329
993.548
992.759
991.966
991.172
990.379
989.588
988.804
988.03
987.266
986.517
985.783
985.068
984.374
983.701
983.052
982.428
981.83
981.257
980.712
980.194
979.703
979.239
978.803
978.392
978.006
977.646
977.31
976.997
976.706
976.436
976.187
975.958
975.747
975.553
975.376
975.215
975.069
974.937
974.818
974.711
974.616
974.532
974.458
974.394
974.339
974.294
974.255
974.225
974.202
974.185
974.175
974.171
974.172
974.178
974.19
974.206
974.227
974.252
974.281
974.314
974.35
974.39
974.433
974.479
974.529
974.58
974.635
974.692
974.751
974.812
974.875
974.939
975.004
975.07
975.137
975.204
975.271
975.337
975.402
975.466
975.529
975.589
975.647
975.701
975.752
975.799
975.842
975.88
975.913
975.94
975.961
975.976
975.986
975.989
975.986
975.977
975.962
975.942
975.916
975.886
975.853
975.817
975.779
975.742
975.705
975.672
975.645
975.624
975.612
975.611
975.623
975.649
975.693
975.755
975.838
975.941
976.067
976.216
976.389
976.585
976.804
977.047
977.311
977.596
977.902
978.225
978.564
978.918
979.284
979.661
980.045
980.437
980.833
981.231
981.629
982.027
982.421
982.811
983.196
983.573
983.943
984.303
984.654
984.993
985.322
985.638
985.943
986.235
986.515
986.783
987.037
987.279
987.508
987.726
987.93
988.124
988.305
988.475
988.634
988.783
988.92
989.048
989.166
989.274
989.373
989.462
989.542
989.613
989.675
989.728
989.771
989.805
989.829
989.843
989.847
989.84
989.822
989.792
989.75
989.694
989.625
989.541
989.441
989.326
989.194
989.045
988.878
988.692
988.489
988.266
988.026
987.768
987.492
987.199
986.89
986.566
986.229
985.88
985.52
985.15
984.774
984.392
984.006
983.618
983.231
982.844
982.462
982.084
981.713
981.35
980.996
980.653
980.322
980.003
979.697
979.406
979.127
978.862
978.613
978.373
978.141
977.925
977.718
977.5
977.289
977.101
976.881
976.622
976.415
976.195
975.861
975.558
975.32
974.966
974.583
974.271
973.946
973.62
973.272
1016.86
1016.78
1016.69
1016.63
1016.43
1016.21
1016.06
1015.8
1015.56
1015.35
1015.09
1014.83
1014.61
1014.37
1014.12
1013.88
1013.66
1013.42
1013.18
1012.95
1012.72
1012.48
1012.24
1012
1011.75
1011.5
1011.25
1010.99
1010.72
1010.44
1010.16
1009.87
1009.56
1009.25
1008.92
1008.59
1008.23
1007.87
1007.49
1007.09
1006.68
1006.25
1005.8
1005.33
1004.84
1004.33
1003.8
1003.25
1002.68
1002.08
1001.46
1000.83
1000.17
999.486
998.784
998.064
997.325
996.568
995.796
995.011
994.214
993.408
992.594
991.777
990.959
990.142
989.329
988.524
987.729
986.947
986.181
985.433
984.705
984
983.319
982.664
982.036
981.436
980.864
980.321
979.807
979.322
978.865
978.436
978.035
977.66
977.311
976.986
976.685
976.407
976.15
975.914
975.696
975.497
975.315
975.15
975
974.864
974.742
974.632
974.534
974.447
974.37
974.303
974.245
974.196
974.154
974.12
974.092
974.071
974.055
974.046
974.042
974.043
974.048
974.058
974.072
974.09
974.111
974.136
974.165
974.197
974.233
974.271
974.312
974.357
974.404
974.454
974.506
974.561
974.618
974.678
974.739
974.802
974.867
974.932
974.999
975.066
975.133
975.201
975.267
975.333
975.397
975.459
975.518
975.574
975.627
975.676
975.72
975.759
975.793
975.821
975.843
975.858
975.867
975.87
975.866
975.857
975.84
975.819
975.793
975.763
975.731
975.696
975.661
975.628
975.598
975.573
975.554
975.545
975.546
975.561
975.59
975.637
975.702
975.788
975.894
976.024
976.176
976.352
976.552
976.775
977.021
977.289
977.577
977.886
978.211
978.553
978.909
979.278
979.656
980.042
980.435
980.831
981.229
981.627
982.024
982.418
982.807
983.19
983.566
983.934
984.292
984.641
984.978
985.304
985.619
985.922
986.212
986.49
986.756
987.008
987.249
987.477
987.693
987.897
988.09
988.271
988.441
988.601
988.75
988.889
989.018
989.137
989.247
989.348
989.44
989.523
989.597
989.661
989.717
989.764
989.801
989.828
989.846
989.853
989.85
989.836
989.809
989.77
989.718
989.652
989.571
989.475
989.363
989.234
989.088
988.923
988.74
988.538
988.318
988.079
987.821
987.544
987.251
986.941
986.616
986.277
985.925
985.562
985.19
984.81
984.425
984.036
983.645
983.254
982.865
982.479
982.098
981.725
981.36
981.004
980.66
980.328
980.009
979.704
979.413
979.138
978.876
978.629
978.399
978.178
977.963
977.767
977.579
977.375
977.18
977.011
976.8
976.556
976.363
976.148
975.835
975.553
975.31
974.982
974.616
974.314
973.998
973.568
1016.63
1016.59
1016.52
1016.41
1016.26
1016.14
1015.94
1015.72
1015.55
1015.33
1015.08
1014.88
1014.66
1014.42
1014.2
1013.98
1013.76
1013.53
1013.31
1013.08
1012.86
1012.62
1012.39
1012.16
1011.92
1011.67
1011.42
1011.17
1010.9
1010.63
1010.35
1010.06
1009.76
1009.44
1009.12
1008.78
1008.43
1008.06
1007.68
1007.28
1006.86
1006.43
1005.97
1005.5
1005
1004.49
1003.95
1003.39
1002.8
1002.19
1001.56
1000.91
1000.23
999.529
998.808
998.065
997.303
996.522
995.725
994.913
994.09
993.256
992.416
991.571
990.725
989.883
989.044
988.215
987.398
986.595
985.81
985.046
984.304
983.588
982.898
982.236
981.605
981.003
980.431
979.892
979.382
978.904
978.456
978.036
977.645
977.282
976.945
976.634
976.347
976.082
975.839
975.617
975.413
975.227
975.058
974.906
974.768
974.643
974.531
974.432
974.343
974.265
974.196
974.136
974.084
974.04
974.003
973.973
973.949
973.93
973.916
973.907
973.903
973.903
973.906
973.914
973.925
973.939
973.957
973.978
974.001
974.028
974.057
974.09
974.125
974.163
974.204
974.247
974.294
974.343
974.395
974.45
974.506
974.565
974.626
974.689
974.754
974.82
974.888
974.956
975.024
975.092
975.159
975.225
975.29
975.352
975.411
975.466
975.518
975.564
975.606
975.642
975.673
975.696
975.713
975.724
975.728
975.726
975.717
975.703
975.684
975.661
975.634
975.606
975.577
975.549
975.524
975.504
975.491
975.486
975.493
975.513
975.547
975.599
975.669
975.759
975.87