# vtk DataFile Version 2.0
LBE mesh
ASCII
DATASET STRUCTURED_POINTS
DIMENSIONS 300 100 1
ASPECT_RATIO 1 1 1
ORIGIN 0 0 0
POINT_DATA 30000
SCALARS rho double 1
LOOKUP_TABLE default
1046.03
1014.22
1013.48
1019.97
1018.13
1014.19
1013.98
1014.48
1013.69
1012.88
1012.7
1012.52
1012.13
1011.8
1011.59
1011.35
1011.09
1010.85
1010.63
1010.4
1010.16
1009.93
1009.7
1009.46
1009.22
1008.98
1008.72
1008.47
1008.2
1007.93
1007.64
1007.35
1007.05
1006.74
1006.41
1006.08
1005.73
1005.37
1005
1004.61
1004.2
1003.79
1003.35
1002.9
1002.43
1001.95
1001.45
1000.93
1000.39
999.838
999.267
998.677
998.07
997.447
996.807
996.151
995.48
994.794
994.095
993.384
992.662
991.931
991.191
990.445
989.693
988.939
988.183
987.428
986.676
985.928
985.185
984.451
983.727
983.014
982.314
981.629
980.96
980.309
979.675
979.062
978.469
977.898
977.348
976.821
976.316
975.834
975.376
974.94
974.527
974.137
973.77
973.425
973.102
972.801
972.52
972.26
972.02
971.8
971.599
971.416
971.251
971.104
970.973
970.859
970.762
970.68
970.613
970.56
970.521
970.497
970.487
970.489
970.504
970.531
970.57
970.622
970.684
970.758
970.843
970.938
971.044
971.159
971.285
971.42
971.564
971.718
971.88
972.051
972.23
972.417
972.611
972.813
973.022
973.238
973.46
973.688
973.922
974.16
974.404
974.652
974.903
975.158
975.416
975.675
975.937
976.199
976.462
976.725
976.987
977.248
977.506
977.762
978.015
978.263
978.508
978.747
978.98
979.207
979.427
979.64
979.845
980.042
980.23
980.409
980.579
980.739
980.889
981.029
981.159
981.278
981.387
981.485
981.572
981.648
981.714
981.769
981.813
981.847
981.869
981.881
981.882
981.872
981.851
981.818
981.774
981.718
981.65
981.57
981.476
981.37
981.251
981.118
980.971
980.811
980.636
980.449
980.249
980.036
979.813
979.578
979.334
979.082
978.824
978.562
978.297
978.032
977.769
977.51
977.258
977.017
976.787
976.573
976.375
976.197
976.041
975.908
975.802
975.722
975.671
975.649
975.656
975.694
975.762
975.86
975.986
976.139
976.319
976.524
976.751
977
977.267
977.551
977.848
978.158
978.476
978.802
979.132
979.465
979.798
980.129
980.456
980.778
981.093
981.399
981.695
981.98
982.254
982.515
982.762
982.996
983.216
983.422
983.614
983.791
983.955
984.106
984.243
984.368
984.48
984.582
984.672
984.752
984.822
984.883
984.936
984.981
985.018
985.048
985.071
985.087
985.096
985.099
985.095
985.084
985.066
985.04
985.005
984.961
984.906
984.84
984.763
984.669
984.557
984.437
984.291
984.103
983.911
983.717
983.409
983.024
982.793
982.434
981.484
980.875
981.123
979.232
975.444
977.637
978.565
954.582
1028.87
1025.3
1021.18
1015.95
1016.13
1016.28
1015.08
1013.91
1013.66
1013.39
1012.9
1012.48
1012.23
1011.96
1011.66
1011.4
1011.16
1010.92
1010.67
1010.43
1010.2
1009.96
1009.72
1009.48
1009.24
1008.99
1008.73
1008.47
1008.2
1007.92
1007.64
1007.34
1007.04
1006.72
1006.4
1006.06
1005.71
1005.35
1004.97
1004.58
1004.17
1003.75
1003.32
1002.87
1002.4
1001.91
1001.41
1000.89
1000.35
999.795
999.222
998.632
998.025
997.401
996.761
996.105
995.434
994.749
994.051
993.341
992.62
991.889
991.151
990.407
989.658
988.906
988.153
987.4
986.651
985.905
985.166
984.435
983.714
983.004
982.308
981.626
980.96
980.312
979.683
979.072
978.483
977.914
977.367
976.843
976.341
975.861
975.405
974.971
974.56
974.172
973.807
973.463
973.142
972.841
972.562
972.303
972.064
971.844
971.644
971.461
971.297
971.15
971.02
970.907
970.809
970.727
970.659
970.607
970.568
970.544
970.533
970.534
970.549
970.576
970.615
970.666
970.728
970.801
970.885
970.979
971.084
971.199
971.324
971.458
971.602
971.754
971.915
972.085
972.263
972.449
972.643
972.844
973.052
973.266
973.487
973.714
973.946
974.184
974.427
974.674
974.924
975.178
975.434
975.693
975.953
976.215
976.477
976.739
977.001
977.26
977.519
977.774
978.026
978.274
978.518
978.756
978.99
979.216
979.436
979.649
979.854
980.051
980.239
980.418
980.588
980.748
980.898
981.038
981.168
981.287
981.396
981.494
981.582
981.658
981.724
981.779
981.823
981.856
981.879
981.89
981.892
981.881
981.86
981.828
981.784
981.728
981.661
981.581
981.488
981.383
981.265
981.133
980.988
980.829
980.657
980.472
980.274
980.064
979.842
979.61
979.368
979.118
978.862
978.602
978.339
978.075
977.813
977.555
977.303
977.061
976.831
976.616
976.417
976.238
976.079
975.945
975.835
975.753
975.698
975.673
975.677
975.711
975.775
975.869
975.991
976.141
976.317
976.519
976.743
976.988
977.252
977.533
977.828
978.135
978.451
978.775
979.104
979.435
979.767
980.097
980.424
980.745
981.06
981.366
981.663
981.948
982.222
982.484
982.732
982.967
983.188
983.395
983.588
983.767
983.932
984.084
984.222
984.348
984.462
984.564
984.655
984.735
984.806
984.868
984.921
984.965
985.002
985.032
985.054
985.07
985.079
985.081
985.076
985.063
985.044
985.016
984.979
984.933
984.876
984.807
984.725
984.631
984.518
984.382
984.232
984.062
983.845
983.593
983.348
983.023
982.548
982.119
981.753
980.842
979.633
979.241
978.159
974.031
970.26
968.207
1020.74
1025.55
1020.86
1016.53
1016.77
1016.47
1015.07
1014.11
1013.9
1013.54
1013
1012.6
1012.34
1012.05
1011.74
1011.47
1011.23
1010.97
1010.72
1010.48
1010.24
1010
1009.76
1009.51
1009.26
1009.01
1008.75
1008.49
1008.21
1007.93
1007.65
1007.35
1007.04
1006.73
1006.4
1006.06
1005.71
1005.34
1004.96
1004.57
1004.16
1003.74
1003.3
1002.85
1002.38
1001.89
1001.38
1000.86
1000.32
999.767
999.193
998.601
997.992
997.367
996.726
996.068
995.397
994.711
994.012
993.301
992.579
991.849
991.11
990.365
989.616
988.864
988.112
987.36
986.611
985.867
985.128
984.399
983.679
982.971
982.277
981.597
980.933
980.288
979.66
979.053
978.465
977.9
977.355
976.833
976.334
975.857
975.403
974.972
974.563
974.178
973.814
973.473
973.153
972.855
972.577
972.32
972.082
971.864
971.665
971.483
971.32
971.174
971.045
970.933
970.836
970.754
970.687
970.635
970.597
970.573
970.562
970.564
970.579
970.606
970.644
970.695
970.757
970.83
970.914
971.008
971.113
971.227
971.352
971.485
971.628
971.781
971.941
972.11
972.288
972.473
972.667
972.867
973.074
973.288
973.508
973.734
973.966
974.204
974.445
974.691
974.941
975.195
975.451
975.709
975.97
976.231
976.493
976.755
977.016
977.276
977.534
977.789
978.041
978.29
978.534
978.773
979.006
979.233
979.453
979.666
979.872
980.069
980.257
980.437
980.607
980.768
980.919
981.059
981.189
981.308
981.418
981.516
981.603
981.68
981.746
981.8
981.844
981.878
981.9
981.912
981.913
981.904
981.883
981.85
981.807
981.752
981.685
981.606
981.515
981.411
981.294
981.164
981.02
980.863
980.692
980.509
980.312
980.104
979.883
979.652
979.411
979.162
978.906
978.645
978.381
978.117
977.853
977.593
977.34
977.095
976.862
976.644
976.441
976.258
976.096
975.957
975.844
975.757
975.699
975.669
975.67
975.701
975.762
975.852
975.971
976.119
976.293
976.492
976.714
976.958
977.222
977.502
977.796
978.103
978.42
978.744
979.073
979.405
979.738
980.069
980.396
980.719
981.035
981.343
981.641
981.928
982.203
982.466
982.716
982.952
983.175
983.383
983.577
983.757
983.923
984.076
984.215
984.341
984.455
984.558
984.649
984.73
984.801
984.862
984.914
984.959
984.995
985.024
985.046
985.061
985.069
985.071
985.065
985.052
985.031
985.002
984.964
984.917
984.86
984.79
984.705
984.609
984.498
984.36
984.199
984.036
983.832
983.548
983.283
983.045
982.555
981.931
981.743
981.232
979.376
978.665
979.694
975.423
969.791
973.953
1020.46
1019.18
1018.64
1019.81
1017.29
1015.17
1015.12
1015.03
1014.11
1013.39
1013.15
1012.87
1012.46
1012.11
1011.85
1011.59
1011.3
1011.04
1010.8
1010.55
1010.3
1010.06
1009.81
1009.56
1009.31
1009.05
1008.79
1008.52
1008.25
1007.97
1007.68
1007.38
1007.07
1006.75
1006.42
1006.08
1005.72
1005.35
1004.97
1004.58
1004.17
1003.75
1003.31
1002.85
1002.38
1001.89
1001.38
1000.85
1000.31
999.754
999.177
998.583
997.971
997.343
996.699
996.039
995.364
994.674
993.973
993.259
992.534
991.801
991.06
990.312
989.56
988.806
988.051
987.297
986.547
985.801
985.062
984.332
983.612
982.904
982.21
981.531
980.869
980.224
979.599
978.993
978.408
977.844
977.303
976.783
976.287
975.813
975.362
974.934
974.529
974.146
973.786
973.448
973.13
972.835
972.56
972.305
972.07
971.854
971.657
971.478
971.317
971.172
971.045
970.934
970.838
970.758
970.693
970.642
970.605
970.582
970.572
970.575
970.59
970.618
970.657
970.708
970.77
970.844
970.928
971.023
971.128
971.243
971.367
971.501
971.644
971.796
971.957
972.126
972.304
972.489
972.682
972.882
973.09
973.303
973.524
973.75
973.982
974.219
974.461
974.707
974.957
975.211
975.467
975.726
975.986
976.248
976.51
976.773
977.035
977.295
977.553
977.809
978.062
978.311
978.556
978.796
979.03
979.257
979.479
979.693
979.899
980.097
980.286
980.466
980.637
980.798
980.95
981.09
981.221
981.341
981.45
981.549
981.637
981.713
981.779
981.834
981.878
981.912
981.934
981.947
981.948
981.938
981.918
981.886
981.843
981.789
981.723
981.645
981.555
981.453
981.337
981.208
981.066
980.91
980.741
980.558
980.362
980.154
979.933
979.702
979.46
979.21
978.952
978.689
978.422
978.154
977.887
977.623
977.365
977.115
976.877
976.653
976.444
976.256
976.088
975.944
975.826
975.734
975.671
975.638
975.635
975.662
975.72
975.809
975.926
976.073
976.246
976.445
976.668
976.912
977.177
977.458
977.754
978.063
978.382
978.708
979.04
979.375
979.71
980.044
980.374
980.699
981.018
981.328
981.628
981.917
982.195
982.46
982.712
982.95
983.173
983.383
983.578
983.759
983.926
984.079
984.219
984.345
984.46
984.562
984.653
984.733
984.804
984.865
984.916
984.961
984.996
985.025
985.046
985.061
985.068
985.069
985.063
985.049
985.028
985
984.962
984.915
984.857
984.788
984.707
984.607
984.494
984.369
984.212
984.022
983.834
983.62
983.291
982.953
982.72
982.236
981.418
981.09
980.822
979.02
977.498
977.752
976.936
975.056
1020.46
1018.27
1018.18
1018.07
1016.58
1016.15
1015.58
1014.71
1014.09
1013.79
1013.4
1012.93
1012.57
1012.29
1011.99
1011.69
1011.41
1011.16
1010.9
1010.64
1010.39
1010.14
1009.89
1009.64
1009.38
1009.12
1008.86
1008.58
1008.31
1008.02
1007.73
1007.43
1007.12
1006.8
1006.46
1006.12
1005.76
1005.39
1005.01
1004.61
1004.2
1003.77
1003.33
1002.87
1002.4
1001.9
1001.39
1000.86
1000.32
999.756
999.175
998.576
997.96
997.327
996.678
996.012
995.332
994.637
993.929
993.21
992.48
991.741
990.994
990.241
989.484
988.724
987.964
987.206
986.451
985.702
984.96
984.227
983.505
982.795
982.1
981.421
980.758
980.114
979.49
978.886
978.303
977.742
977.203
976.686
976.193
975.723
975.276
974.852
974.451
974.072
973.715
973.381
973.068
972.776
972.505
972.254
972.022
971.81
971.616
971.44
971.281
971.14
971.015
970.906
970.813
970.735
970.672
970.623
970.588
970.567
970.559
970.563
970.58
970.609
970.65
970.703
970.767
970.841
970.927
971.023
971.129
971.244
971.37
971.505
971.649
971.802
971.963
972.133
972.312
972.498
972.691
972.892
973.1
973.315
973.536
973.763
973.995
974.233
974.475
974.723
974.973
975.228
975.485
975.744
976.005
976.268
976.531
976.795
977.057
977.319
977.578
977.835
978.089
978.339
978.585
978.826
979.061
979.29
979.512
979.727
979.935
980.134
980.324
980.505
980.677
980.839
980.991
981.133
981.264
981.384
981.494
981.593
981.681
981.758
981.824
981.879
981.924
981.957
981.98
981.992
981.994
981.984
981.964
981.933
981.891
981.838
981.773
981.696
981.607
981.506
981.391
981.263
981.122
980.967
980.798
980.616
980.42
980.211
979.989
979.756
979.512
979.258
978.997
978.73
978.458
978.184
977.911
977.641
977.376
977.119
976.873
976.642
976.426
976.23
976.056
975.906
975.781
975.685
975.617
975.58
975.573
975.598
975.654
975.742
975.859
976.005
976.18
976.38
976.605
976.852
977.119
977.403
977.703
978.016
978.339
978.669
979.005
979.344
979.683
980.02
980.354
980.683
981.005
981.319
981.622
981.915
982.195
982.462
982.716
982.956
983.182
983.393
983.589
983.771
983.939
984.092
984.232
984.359
984.473
984.575
984.665
984.745
984.815
984.875
984.927
984.97
985.005
985.033
985.054
985.068
985.076
985.077
985.071
985.058
985.038
985.01
984.973
984.928
984.872
984.804
984.726
984.634
984.519
984.395
984.259
984.078
983.866
983.682
983.438
983.039
982.736
982.55
981.86
981.031
981.129
980.512
978.418
978.325
978.587
976.835
1018.37
1018.38
1017.96
1016.47
1016.6
1016.44
1015.25
1014.62
1014.44
1014.01
1013.42
1013.05
1012.79
1012.46
1012.11
1011.82
1011.56
1011.29
1011.02
1010.76
1010.51
1010.25
1010
1009.74
1009.48
1009.22
1008.95
1008.68
1008.4
1008.11
1007.81
1007.51
1007.19
1006.87
1006.53
1006.19
1005.83
1005.46
1005.07
1004.67
1004.26
1003.83
1003.38
1002.92
1002.44
1001.94
1001.42
1000.89
1000.34
999.772
999.186
998.581
997.958
997.318
996.661
995.988
995.299
994.597
993.881
993.153
992.414
991.666
990.911
990.149
989.384
988.616
987.849
987.083
986.322
985.566
984.818
984.08
983.354
982.641
981.943
981.262
980.599
979.954
979.33
978.727
978.146
977.587
977.051
976.538
976.049
975.583
975.14
974.721
974.324
973.951
973.599
973.27
972.962
972.675
972.409
972.162
971.935
971.727
971.538
971.366
971.211
971.074
970.953
970.847
970.758
970.683
970.623
970.577
970.545
970.526
970.521
970.527
970.547
970.579
970.622
970.677
970.743
970.82
970.908
971.006
971.113
971.232
971.359
971.495
971.641
971.796
971.96
972.132
972.312
972.499
972.695
972.897
973.107
973.323
973.545
973.774
974.008
974.247
974.491
974.739
974.991
975.247
975.505
975.766
976.029
976.293
976.557
976.822
977.086
977.349
977.609
977.868
978.123
978.375
978.622
978.864
979.1
979.33
979.554
979.77
979.979
980.179
980.37
980.552
980.725
980.888
981.041
981.184
981.315
981.436
981.547
981.646
981.735
981.812
981.879
981.934
981.979
982.013
982.036
982.048
982.05
982.041
982.021
981.991
981.949
981.896
981.832
981.756
981.668
981.567
981.453
981.326
981.186
981.031
980.862
980.679
980.482
980.271
980.047
979.81
979.562
979.304
979.038
978.764
978.486
978.205
977.923
977.645
977.371
977.105
976.851
976.61
976.387
976.183
976.001
975.844
975.713
975.611
975.539
975.498
975.489
975.512
975.567
975.655
975.773
975.92
976.097
976.3
976.528
976.779
977.05
977.34
977.644
977.962
978.29
978.626
978.967
979.311
979.655
979.998
980.337
980.67
980.997
981.314
981.621
981.917
982.201
982.471
982.728
982.97
983.197
983.41
983.607
983.79
983.959
984.112
984.253
984.379
984.493
984.595
984.685
984.764
984.833
984.893
984.944
984.986
985.022
985.049
985.07
985.085
985.093
985.095
985.09
985.078
985.06
985.034
985
984.957
984.906
984.842
984.765
984.681
984.581
984.453
984.318
984.181
983.987
983.747
983.571
983.347
982.897
982.564
982.481
981.838
980.93
980.951
980.749
979.615
978.999
979.163
1017.32
1017.71
1017.22
1016.57
1016.38
1015.63
1015.25
1015
1014.43
1013.89
1013.6
1013.3
1012.91
1012.55
1012.28
1012
1011.71
1011.43
1011.17
1010.91
1010.65
1010.39
1010.13
1009.87
1009.61
1009.34
1009.07
1008.79
1008.51
1008.22
1007.92
1007.62
1007.3
1006.97
1006.64
1006.29
1005.92
1005.55
1005.16
1004.76
1004.34
1003.9
1003.45
1002.99
1002.5
1002
1001.48
1000.94
1000.38
999.804
999.21
998.597
997.965
997.316
996.649
995.966
995.267
994.553
993.826
993.086
992.336
991.576
990.809
990.036
989.259
988.481
987.703
986.927
986.156
985.392
984.636
983.891
983.159
982.441
981.739
981.055
980.389
979.743
979.119
978.516
977.937
977.38
976.847
976.338
975.853
975.392
974.954
974.54
974.15
973.782
973.437
973.113
972.812
972.531
972.27
972.029
971.808
971.605
971.421
971.254
971.105
970.972
970.855
970.755
970.669
970.598
970.542
970.5
970.472
970.457
970.455
970.466
970.489
970.524
970.571
970.629
970.699
970.779
970.87
970.971
971.083
971.204
971.334
971.474
971.623
971.781
971.948
972.122
972.305
972.495
972.693
972.899
973.111
973.329
973.554
973.785
974.021
974.263
974.509
974.759
975.013
975.271
975.531
975.793
976.058
976.323
976.59
976.856
977.121
977.386
977.648
977.908
978.165
978.418
978.666
978.909
979.147
979.378
979.603
979.82
980.03
980.231
980.423
980.607
980.78
980.944
981.098
981.241
981.374
981.495
981.606
981.706
981.795
981.873
981.94
981.996
982.041
982.075
982.098
982.111
982.113
982.104
982.085
982.055
982.014
981.961
981.898
981.822
981.734
981.634
981.521
981.394
981.253
981.097
980.927
980.742
980.543
980.329
980.102
979.861
979.608
979.344
979.07
978.789
978.502
978.213
977.922
977.634
977.35
977.075
976.811
976.561
976.328
976.115
975.926
975.761
975.625
975.517
975.441
975.397
975.386
975.408
975.463
975.551
975.671
975.821
976.001
976.208
976.441
976.697
976.974
977.269
977.58
977.904
978.238
978.58
978.927
979.277
979.628
979.976
980.32
980.659
980.99
981.312
981.624
981.924
982.211
982.484
982.744
982.988
983.218
983.432
983.631
983.815
983.984
984.138
984.278
984.405
984.518
984.62
984.709
984.788
984.857
984.916
984.967
985.01
985.045
985.073
985.095
985.11
985.119
985.122
985.12
985.11
985.095
985.073
985.043
985.004
984.957
984.902
984.833
984.751
984.664
984.559
984.423
984.289
984.156
983.947
983.709
983.573
983.336
982.87
982.67
982.608
981.916
981.409
981.524
981.046
980.581
980.725
1017.05
1016.74
1016.51
1016.63
1015.99
1015.4
1015.3
1014.86
1014.34
1014.04
1013.75
1013.35
1013
1012.73
1012.44
1012.14
1011.85
1011.59
1011.33
1011.06
1010.8
1010.54
1010.28
1010.02
1009.76
1009.49
1009.22
1008.94
1008.65
1008.36
1008.06
1007.75
1007.43
1007.1
1006.76
1006.41
1006.05
1005.67
1005.28
1004.87
1004.44
1004.01
1003.55
1003.08
1002.59
1002.08
1001.55
1001
1000.44
999.851
999.247
998.624
997.981
997.321
996.642
995.946
995.234
994.506
993.765
993.011
992.246
991.472
990.69
989.903
989.111
988.319
987.528
986.739
985.956
985.181
984.414
983.66
982.92
982.195
981.487
980.799
980.13
979.482
978.857
978.255
977.677
977.122
976.593
976.088
975.607
975.151
974.719
974.312
973.928
973.567
973.229
972.912
972.617
972.343
972.09
971.856
971.641
971.445
971.267
971.106
970.963
970.835
970.724
970.628
970.548
970.483
970.431
970.394
970.37
970.36
970.363
970.378
970.405
970.445
970.496
970.559
970.633
970.718
970.813
970.919
971.035
971.161
971.296
971.44
971.593
971.756
971.926
972.105
972.292
972.487
972.689
972.898
973.113
973.335
973.564
973.798
974.037
974.282
974.531
974.784
975.041
975.301
975.563
975.828
976.095
976.362
976.63
976.898
977.165
977.431
977.695
977.956
978.214
978.468
978.717
978.961
979.2
979.432
979.658
979.876
980.086
980.288
980.481
980.665
980.84
981.004
981.159
981.302
981.435
981.558
981.669
981.77
981.859
981.938
982.005
982.061
982.107
982.141
982.164
982.177
982.18
982.171
982.152
982.122
982.081
982.029
981.965
981.89
981.802
981.702
981.588
981.461
981.319
981.162
980.99
980.803
980.6
980.383
980.151
979.905
979.645
979.374
979.093
978.803
978.507
978.207
977.907
977.608
977.314
977.028
976.754
976.494
976.252
976.031
975.834
975.663
975.52
975.408
975.328
975.282
975.269
975.291
975.347
975.436
975.559
975.713
975.897
976.109
976.347
976.609
976.892
977.194
977.511
977.842
978.183
978.532
978.886
979.243
979.6
979.954
980.305
980.649
980.986
981.313
981.629
981.932
982.223
982.5
982.762
983.009
983.241
983.457
983.657
983.842
984.012
984.167
984.307
984.433
984.547
984.648
984.737
984.816
984.885
984.944
984.995
985.038
985.074
985.103
985.127
985.143
985.155
985.161
985.161
985.156
985.144
985.126
985.102
985.071
985.03
984.982
984.926
984.854
984.77
984.687
984.585
984.444
984.318
984.208
984
983.765
983.687
983.499
983.055
982.917
982.95
982.522
982.145
982.254
982.3
982.007
1016.6
1016.39
1016.26
1016.06
1015.67
1015.52
1015.1
1014.65
1014.43
1014.13
1013.73
1013.41
1013.16
1012.86
1012.55
1012.28
1012.02
1011.75
1011.48
1011.22
1010.97
1010.71
1010.45
1010.19
1009.92
1009.65
1009.38
1009.1
1008.82
1008.52
1008.22
1007.91
1007.59
1007.26
1006.92
1006.56
1006.19
1005.81
1005.41
1005
1004.58
1004.13
1003.67
1003.19
1002.69
1002.18
1001.64
1001.08
1000.51
999.913
999.298
998.662
998.007
997.333
996.639
995.929
995.201
994.457
993.699
992.928
992.146
991.354
990.554
989.749
988.941
988.132
987.324
986.52
985.722
984.933
984.155
983.389
982.639
981.906
981.191
980.497
979.824
979.174
978.547
977.945
977.368
976.816
976.29
975.789
975.314
974.864
974.439
974.038
973.662
973.309
972.978
972.67
972.383
972.117
971.871
971.645
971.437
971.248
971.077
970.923
970.786
970.665
970.56
970.47
970.396
970.336
970.29
970.258
970.24
970.235
970.243
970.263
970.297
970.341
970.398
970.467
970.546
970.636
970.738
970.849
970.971
971.102
971.243
971.393
971.552
971.72
971.897
972.081
972.274
972.474
972.681
972.894
973.116
973.343
973.576
973.814
974.058
974.306
974.559
974.816
975.076
975.339
975.604
975.872
976.141
976.41
976.68
976.949
977.218
977.485
977.75
978.012
978.271
978.526
978.776
979.021
979.26
979.492
979.718
979.937
980.147
980.349
980.542
980.726
980.901
981.065
981.22
981.364
981.497
981.62
981.732
981.832
981.922
982.001
982.068
982.125
982.17
982.205
982.229
982.242
982.245
982.236
982.218
982.188
982.147
982.094
982.031
981.955
981.867
981.765
981.651
981.522
981.379
981.22
981.046
980.855
980.649
980.427
980.19
979.938
979.672
979.393
979.103
978.804
978.498
978.189
977.878
977.568
977.264
976.968
976.683
976.414
976.163
975.934
975.729
975.552
975.404
975.288
975.206
975.157
975.144
975.166
975.223
975.315
975.44
975.599
975.787
976.005
976.249
976.517
976.807
977.116
977.441
977.779
978.127
978.484
978.845
979.208
979.572
979.933
980.29
980.64
980.982
981.314
981.634
981.943
982.237
982.517
982.782
983.032
983.266
983.483
983.685
983.871
984.041
984.196
984.337
984.464
984.577
984.678
984.768
984.847
984.916
984.976
985.027
985.072
985.109
985.14
985.165
985.185
985.2
985.21
985.215
985.214
985.208
985.196
985.179
985.155
985.125
985.084
985.039
984.986
984.917
984.838
984.765
984.671
984.537
984.437
984.354
984.159
983.983
983.968
983.803
983.511
983.508
983.513
983.319
983.335
983.452
983.478
1016.08
1016.11
1016
1015.65
1015.54
1015.35
1014.92
1014.68
1014.43
1014.07
1013.78
1013.53
1013.24
1012.94
1012.68
1012.43
1012.16
1011.89
1011.64
1011.39
1011.13
1010.88
1010.62
1010.36
1010.1
1009.83
1009.56
1009.28
1008.99
1008.7
1008.4
1008.09
1007.76
1007.43
1007.09
1006.73
1006.36
1005.97
1005.57
1005.16
1004.73
1004.28
1003.81
1003.32
1002.82
1002.29
1001.75
1001.18
1000.6
999.989
999.361
998.712
998.042
997.352
996.643
995.915
995.169
994.406
993.629
992.838
992.035
991.223
990.403
989.577
988.749
987.92
987.093
986.271
985.456
984.651
983.858
983.079
982.318
981.574
980.852
980.151
979.473
978.82
978.191
977.589
977.013
976.464
975.942
975.446
974.977
974.534
974.116
973.723
973.355
973.01
972.688
972.389
972.111
971.853
971.616
971.398
971.199
971.018
970.854
970.708
970.578
970.464
970.365
970.282
970.214
970.16
970.12
970.094
970.082
970.083
970.097
970.123
970.163
970.214
970.277
970.352
970.438
970.535
970.643
970.761
970.89
971.028
971.176
971.334
971.5
971.675
971.859
972.05
972.25
972.456
972.67
972.891
973.118
973.351
973.59
973.834
974.083
974.336
974.594
974.855
975.119
975.386
975.655
975.925
976.197
976.468
976.741
977.011
977.281
977.55
977.816
978.078
978.337
978.592
978.842
979.087
979.325
979.557
979.783
980
980.21
980.411
980.604
980.787
980.961
981.125
981.279
981.422
981.555
981.677
981.789
981.889
981.979
982.057
982.125
982.182
982.227
982.262
982.286
982.3
982.303
982.294
982.276
982.245
982.205
982.152
982.088
982.012
981.922
981.82
981.704
981.573
981.428
981.267
981.09
980.896
980.685
980.458
980.215
979.957
979.684
979.397
979.099
978.792
978.476
978.156
977.835
977.516
977.201
976.895
976.601
976.323
976.064
975.827
975.616
975.434
975.282
975.162
975.077
975.027
975.014
975.037
975.096
975.191
975.32
975.483
975.676
975.9
976.15
976.425
976.722
977.038
977.37
977.716
978.072
978.436
978.804
979.175
979.545
979.913
980.276
980.632
980.979
981.316
981.641
981.953
982.251
982.535
982.803
983.055
983.29
983.51
983.712
983.899
984.07
984.226
984.367
984.494
984.608
984.709
984.799
984.878
984.948
985.009
985.063
985.109
985.148
985.182
985.211
985.234
985.254
985.268
985.279
985.284
985.285
985.282
985.273
985.258
985.238
985.212
985.176
985.137
985.094
985.032
984.964
984.912
984.836
984.719
984.659
984.622
984.466
984.358
984.417
984.354
984.21
984.308
984.47
984.498
984.641
984.941
1015.79
1015.78
1015.67
1015.53
1015.38
1015.07
1014.88
1014.68
1014.34
1014.07
1013.86
1013.58
1013.29
1013.05
1012.8
1012.54
1012.28
1012.04
1011.79
1011.54
1011.29
1011.04
1010.79
1010.53
1010.27
1010.01
1009.74
1009.46
1009.18
1008.89
1008.58
1008.27
1007.95
1007.62
1007.27
1006.91
1006.54
1006.15
1005.75
1005.33
1004.89
1004.44
1003.97
1003.47
1002.96
1002.43
1001.87
1001.3
1000.7
1000.08
999.436
998.772
998.086
997.379
996.652
995.904
995.138
994.354
993.555
992.741
991.916
991.08
990.236
989.387
988.536
987.684
986.836
985.993
985.158
984.335
983.525
982.731
981.956
981.202
980.47
979.761
979.078
978.421
977.792
977.189
976.615
976.069
975.551
975.061
974.598
974.163
973.754
973.37
973.01
972.675
972.363
972.073
971.804
971.557
971.329
971.12
970.93
970.757
970.602
970.463
970.341
970.234
970.143
970.067
970.005
969.958
969.924
969.905
969.899
969.906
969.927
969.96
970.006
970.064
970.134
970.216
970.31
970.414
970.53
970.656
970.793
970.939
971.096
971.261
971.436
971.62
971.812
972.012
972.22
972.435
972.657
972.885
973.12
973.361
973.607
973.858
974.113
974.373
974.636
974.902
975.171
975.442
975.715
975.989
976.263
976.538
976.812
977.085
977.356
977.625
977.891
978.154
978.412
978.667
978.916
979.16
979.397
979.627
979.851
980.067
980.275
980.474
980.665
980.846
981.018
981.18
981.332
981.474
981.606
981.726
981.837
981.936
982.025
982.103
982.17
982.227
982.272
982.307
982.331
982.345
982.347
982.339
982.32
982.29
982.249
982.196
982.131
982.054
981.964
981.86
981.742
981.61
981.462
981.298
981.117
980.919
980.705
980.473
980.224
979.96
979.68
979.386
979.08
978.764
978.44
978.112
977.781
977.452
977.129
976.814
976.511
976.225
975.959
975.716
975.5
975.312
975.157
975.035
974.948
974.898
974.885
974.909
974.971
975.069
975.202
975.369
975.568
975.798
976.054
976.336
976.64
976.964
977.303
977.656
978.02
978.391
978.766
979.144
979.521
979.895
980.263
980.625
980.977
981.319
981.648
981.964
982.266
982.552
982.823
983.077
983.314
983.535
983.739
983.926
984.098
984.254
984.396
984.523
984.637
984.739
984.83
984.91
984.981
985.044
985.1
985.148
985.191
985.229
985.262
985.29
985.315
985.336
985.353
985.366
985.375
985.381
985.383
985.378
985.37
985.359
985.34
985.313
985.287
985.259
985.21
985.163
985.142
985.092
985.013
985.01
985.018
984.94
984.943
985.059
985.109
985.186
985.4
985.641
985.951
986.323
1015.59
1015.51
1015.43
1015.37
1015.18
1014.97
1014.82
1014.56
1014.32
1014.12
1013.86
1013.6
1013.38
1013.14
1012.89
1012.65
1012.42
1012.18
1011.93
1011.69
1011.45
1011.21
1010.96
1010.71
1010.45
1010.19
1009.93
1009.65
1009.37
1009.08
1008.78
1008.47
1008.15
1007.81
1007.47
1007.11
1006.73
1006.35
1005.94
1005.52
1005.08
1004.62
1004.14
1003.64
1003.12
1002.58
1002.01
1001.42
1000.81
1000.18
999.523
998.842
998.139
997.413
996.665
995.897
995.108
994.301
993.477
992.638
991.787
990.925
990.055
989.18
988.302
987.425
986.552
985.685
984.829
983.985
983.156
982.346
981.556
980.789
980.046
979.33
978.641
977.98
977.349
976.747
976.174
975.632
975.119
974.636
974.181
973.754
973.354
972.98
972.631
972.306
972.005
971.726
971.468
971.231
971.013
970.814
970.633
970.47
970.323
970.193
970.078
969.979
969.896
969.826
969.772
969.732
969.705
969.693
969.693
969.707
969.734
969.774
969.827
969.893
969.971
970.06
970.162
970.275
970.399
970.534
970.68
970.836
971.002
971.177
971.361
971.555
971.757
971.967
972.184
972.409
972.641
972.878
973.122
973.372
973.626
973.885
974.148
974.415
974.685
974.957
975.232
975.508
975.786
976.063
976.341
976.618
976.895
977.169
977.442
977.712
977.978
978.24
978.498
978.751
978.999
979.24
979.475
979.703
979.924
980.137
980.342
980.538
980.725
980.903
981.071
981.23
981.379
981.518
981.647
981.765
981.873
981.97
982.057
982.134
982.199
982.255
982.299
982.333
982.357
982.37
982.373
982.365
982.345
982.315
982.274
982.22
982.155
982.077
981.985
981.88
981.76
981.626
981.475
981.308
981.125
980.923
980.705
980.468
980.214
979.944
979.659
979.358
979.045
978.722
978.391
978.054
977.716
977.38
977.048
976.726
976.417
976.125
975.853
975.605
975.384
975.193
975.035
974.911
974.823
974.773
974.761
974.787
974.852
974.953
975.09
975.262
975.467
975.702
975.965
976.253
976.564
976.895
977.242
977.602
977.973
978.351
978.733
979.117
979.5
979.88
980.254
980.621
980.978
981.323
981.657
981.976
982.281
982.57
982.843
983.099
983.337
983.559
983.764
983.952
984.125
984.281
984.423
984.55
984.665
984.768
984.86
984.941
985.014
985.079
985.138
985.19
985.237
985.279
985.317
985.352
985.383
985.411
985.436
985.459
985.477
985.493
985.506
985.516
985.52
985.522
985.523
985.517
985.502
985.496
985.49
985.463
985.447
985.467
985.455
985.431
985.494
985.57
985.593
985.707
985.926
986.123
986.366
986.733
987.178
987.675
1015.37
1015.34
1015.28
1015.17
1015.03
1014.92
1014.71
1014.5
1014.33
1014.11
1013.87
1013.66
1013.45
1013.21
1012.98
1012.76
1012.53
1012.3
1012.07
1011.84
1011.61
1011.37
1011.13
1010.88
1010.63
1010.38
1010.11
1009.84
1009.56
1009.28
1008.98
1008.67
1008.35
1008.02
1007.67
1007.31
1006.94
1006.55
1006.14
1005.72
1005.27
1004.81
1004.32
1003.82
1003.29
1002.74
1002.16
1001.56
1000.94
1000.29
999.619
998.922
998.2
997.453
996.684
995.892
995.079
994.246
993.395
992.529
991.649
990.758
989.858
988.953
988.047
987.142
986.241
985.348
984.467
983.6
982.751
981.921
981.115
980.334
979.58
978.855
978.16
977.495
976.862
976.261
975.691
975.154
974.647
974.171
973.725
973.308
972.918
972.556
972.218
971.906
971.616
971.349
971.103
970.877
970.67
970.482
970.311
970.158
970.02
969.899
969.793
969.703
969.626
969.565
969.518
969.484
969.465
969.459
969.467
969.487
969.522
969.569
969.629
969.702
969.789
969.886
969.996
970.118
970.251
970.396
970.552
970.717
970.894
971.079
971.275
971.48
971.693
971.914
972.142
972.378
972.621
972.869
973.124
973.383
973.647
973.916
974.188
974.463
974.741
975.02
975.302
975.584
975.867
976.149
976.431
976.711
976.99
977.266
977.54
977.81
978.076
978.338
978.594
978.845
979.091
979.329
979.56
979.785
980.001
980.21
980.41
980.601
980.784
980.957
981.12
981.274
981.419
981.553
981.677
981.791
981.895
981.989
982.072
982.146
982.209
982.262
982.305
982.338
982.36
982.372
982.374
982.365
982.345