# vtk DataFile Version 2.0
LBE mesh
ASCII
DATASET STRUCTURED_POINTS
DIMENSIONS 300 100 1
ASPECT_RATIO 1 1 1
ORIGIN 0 0 0
POINT_DATA 30000
SCALARS rho double 1
LOOKUP_TABLE default
1046.78
1015.07
1014.36
1020.83
1019
1015.09
1014.89
1015.4
1014.63
1013.84
1013.67
1013.51
1013.14
1012.83
1012.63
1012.42
1012.18
1011.96
1011.76
1011.55
1011.34
1011.14
1010.93
1010.72
1010.51
1010.29
1010.07
1009.85
1009.62
1009.38
1009.14
1008.88
1008.62
1008.35
1008.07
1007.78
1007.48
1007.16
1006.84
1006.5
1006.14
1005.78
1005.4
1005
1004.59
1004.16
1003.71
1003.25
1002.77
1002.28
1001.77
1001.24
1000.69
1000.13
999.552
998.96
998.353
997.732
997.098
996.452
995.796
995.131
994.458
993.779
993.095
992.408
991.72
991.032
990.347
989.665
988.99
988.322
987.663
987.014
986.379
985.757
985.15
984.56
983.988
983.434
982.899
982.384
981.89
981.416
980.965
980.534
980.125
979.738
979.372
979.028
978.704
978.401
978.119
977.856
977.612
977.387
977.18
976.99
976.818
976.662
976.522
976.397
976.286
976.188
976.104
976.032
975.973
975.924
975.886
975.858
975.84
975.83
975.829
975.835
975.848
975.868
975.894
975.925
975.961
976.001
976.045
976.093
976.144
976.197
976.251
976.308
976.365
976.423
976.481
976.538
976.595
976.651
976.706
976.759
976.809
976.857
976.902
976.944
976.983
977.018
977.049
977.075
977.097
977.115
977.128
977.135
977.137
977.133
977.124
977.109
977.088
977.061
977.027
976.987
976.94
976.886
976.826
976.758
976.683
976.6
976.511
976.414
976.311
976.201
976.084
975.963
975.837
975.706
975.573
975.438
975.304
975.17
975.039
974.913
974.793
974.682
974.581
974.492
974.417
974.358
974.316
974.293
974.29
974.308
974.349
974.412
974.498
974.607
974.74
974.894
975.071
975.267
975.484
975.718
975.969
976.234
976.512
976.801
977.099
977.404
977.715
978.029
978.345
978.66
978.974
979.284
979.59
979.89
980.183
980.467
980.743
981.01
981.267
981.513
981.748
981.972
982.186
982.388
982.579
982.759
982.928
983.087
983.235
983.374
983.503
983.622
983.733
983.836
983.93
984.017
984.096
984.168
984.233
984.291
984.342
984.387
984.426
984.458
984.483
984.501
984.512
984.516
984.513
984.501
984.481
984.453
984.415
984.368
984.31
984.243
984.164
984.075
983.974
983.861
983.736
983.6
983.45
983.289
983.115
982.93
982.733
982.524
982.304
982.073
981.832
981.582
981.323
981.055
980.781
980.499
980.212
979.92
979.624
979.323
979.02
978.714
978.407
978.098
977.786
977.473
977.158
976.836
976.509
976.183
975.843
975.472
975.105
974.744
974.28
973.745
973.361
972.852
971.778
971.026
971.092
969.102
965.336
967.323
968.114
945.207
1029.67
1026.12
1022.03
1016.83
1017.01
1017.17
1015.99
1014.83
1014.6
1014.35
1013.87
1013.48
1013.24
1012.99
1012.71
1012.46
1012.25
1012.03
1011.8
1011.59
1011.38
1011.17
1010.96
1010.74
1010.53
1010.31
1010.08
1009.86
1009.62
1009.38
1009.13
1008.88
1008.61
1008.34
1008.06
1007.76
1007.46
1007.14
1006.81
1006.47
1006.12
1005.75
1005.36
1004.96
1004.55
1004.12
1003.67
1003.21
1002.73
1002.23
1001.72
1001.19
1000.65
1000.08
999.506
998.914
998.307
997.686
997.053
996.409
995.754
995.09
994.419
993.741
993.059
992.374
991.688
991.003
990.32
989.641
988.969
988.304
987.648
987.003
986.37
985.752
985.148
984.561
983.992
983.441
982.909
982.397
981.905
981.434
980.985
980.557
980.15
979.765
979.401
979.058
978.736
978.434
978.153
977.891
977.648
977.424
977.218
977.029
976.857
976.701
976.561
976.436
976.325
976.228
976.144
976.073
976.013
975.964
975.926
975.898
975.879
975.87
975.868
975.874
975.887
975.906
975.932
975.963
975.999
976.039
976.083
976.131
976.181
976.234
976.289
976.345
976.402
976.46
976.518
976.576
976.633
976.689
976.744
976.796
976.847
976.894
976.94
976.981
977.02
977.055
977.085
977.111
977.133
977.15
977.162
977.169
977.171
977.167
977.157
977.142
977.12
977.092
977.058
977.017
976.97
976.915
976.854
976.786
976.711
976.629
976.539
976.443
976.34
976.23
976.115
975.994
975.868
975.738
975.606
975.472
975.338
975.204
975.074
974.948
974.828
974.716
974.615
974.525
974.449
974.388
974.345
974.32
974.315
974.331
974.368
974.429
974.512
974.618
974.747
974.899
975.072
975.266
975.479
975.71
975.958
976.22
976.496
976.783
977.079
977.382
977.69
978.003
978.317
978.631
978.944
979.254
979.559
979.858
980.151
980.436
980.712
980.979
981.236
981.482
981.718
981.943
982.157
982.36
982.552
982.732
982.903
983.062
983.211
983.351
983.48
983.601
983.713
983.816
983.911
983.998
984.078
984.15
984.216
984.274
984.326
984.372
984.411
984.443
984.468
984.487
984.499
984.503
984.5
984.489
984.469
984.441
984.404
984.358
984.302
984.235
984.158
984.069
983.969
983.858
983.734
983.599
983.451
983.291
983.119
982.934
982.738
982.53
982.311
982.081
981.841
981.591
981.333
981.065
980.791
980.509
980.221
979.928
979.63
979.329
979.024
978.716
978.405
978.093
977.778
977.46
977.139
976.815
976.483
976.141
975.794
975.437
975.044
974.624
974.218
973.739
973.12
972.543
972.028
970.989
969.666
969.119
967.97
963.883
960.2
958.407
1021.56
1026.37
1021.7
1017.4
1017.64
1017.36
1015.98
1015.04
1014.84
1014.49
1013.97
1013.6
1013.35
1013.08
1012.79
1012.54
1012.31
1012.08
1011.86
1011.64
1011.42
1011.21
1010.99
1010.77
1010.55
1010.33
1010.1
1009.87
1009.63
1009.39
1009.14
1008.88
1008.61
1008.34
1008.05
1007.76
1007.45
1007.13
1006.8
1006.46
1006.1
1005.73
1005.35
1004.95
1004.53
1004.1
1003.65
1003.18
1002.7
1002.21
1001.69
1001.16
1000.61
1000.05
999.471
998.877
998.269
997.648
997.014
996.369
995.713
995.049
994.378
993.7
993.018
992.333
991.648
990.963
990.281
989.603
988.931
988.268
987.613
986.97
986.34
985.723
985.122
984.537
983.97
983.421
982.891
982.382
981.893
981.425
980.978
980.552
980.148
979.765
979.403
979.062
978.742
978.442
978.163
977.903
977.662
977.439
977.234
977.047
976.876
976.722
976.583
976.458
976.349
976.252
976.169
976.098
976.039
975.991
975.953
975.926
975.907
975.898
975.897
975.903
975.916
975.936
975.962
975.993
976.03
976.07
976.115
976.163
976.214
976.267
976.322
976.379
976.437
976.495
976.553
976.611
976.668
976.725
976.78
976.833
976.884
976.932
976.977
977.019
977.057
977.092
977.123
977.149
977.171
977.188
977.2
977.206
977.207
977.203
977.193
977.177
977.156
977.127
977.093
977.052
977.004
976.95
976.888
976.82
976.745
976.662
976.573
976.477
976.373
976.264
976.148
976.027
975.901
975.772
975.639
975.504
975.369
975.234
975.103
974.975
974.853
974.74
974.636
974.544
974.465
974.401
974.354
974.326
974.318
974.331
974.365
974.423
974.503
974.607
974.733
974.882
975.053
975.245
975.456
975.686
975.932
976.194
976.468
976.755
977.05
977.353
977.662
977.975
978.289
978.604
978.917
979.227
979.533
979.833
980.127
980.412
980.689
980.957
981.215
981.462
981.699
981.925
982.14
982.343
982.536
982.717
982.888
983.048
983.198
983.338
983.468
983.59
983.702
983.805
983.901
983.988
984.069
984.141
984.207
984.266
984.318
984.364
984.403
984.436
984.462
984.481
984.494
984.499
984.497
984.486
984.468
984.441
984.405
984.36
984.305
984.24
984.164
984.077
983.979
983.868
983.746
983.612
983.466
983.307
983.136
982.953
982.758
982.55
982.332
982.103
981.863
981.613
981.354
981.087
980.811
980.529
980.24
979.946
979.646
979.343
979.036
978.726
978.413
978.097
977.779
977.459
977.132
976.804
976.473
976.125
975.766
975.413
975.03
974.578
974.152
973.755
973.118
972.355
972.01
971.349
969.412
968.566
969.395
965.204
959.824
963.985
1021.29
1020.02
1019.49
1020.67
1018.16
1016.07
1016.03
1015.95
1015.05
1014.35
1014.12
1013.86
1013.46
1013.13
1012.9
1012.65
1012.39
1012.15
1011.93
1011.71
1011.48
1011.26
1011.04
1010.82
1010.6
1010.37
1010.14
1009.91
1009.67
1009.42
1009.17
1008.91
1008.64
1008.36
1008.07
1007.77
1007.47
1007.15
1006.81
1006.47
1006.11
1005.74
1005.35
1004.95
1004.53
1004.09
1003.64
1003.18
1002.69
1002.19
1001.68
1001.14
1000.59
1000.03
999.444
998.848
998.237
997.613
996.976
996.328
995.669
995.003
994.328
993.648
992.964
992.277
991.59
990.903
990.22
989.541
988.869
988.204
987.55
986.907
986.277
985.661
985.061
984.477
983.912
983.366
982.838
982.331
981.845
981.38
980.936
980.513
980.111
979.731
979.373
979.035
978.718
978.421
978.145
977.887
977.649
977.428
977.226
977.041
976.873
976.72
976.583
976.461
976.352
976.258
976.176
976.107
976.048
976.002
975.965
975.939
975.922
975.913
975.913
975.92
975.934
975.955
975.982
976.014
976.051
976.092
976.137
976.186
976.238
976.292
976.347
976.405
976.464
976.523
976.581
976.64
976.698
976.755
976.811
976.865
976.916
976.965
977.011
977.054
977.093
977.128
977.159
977.186
977.208
977.225
977.237
977.244
977.245
977.241
977.231
977.215
977.193
977.165
977.13
977.089
977.041
976.987
976.925
976.857
976.781
976.699
976.609
976.513
976.409
976.299
976.183
976.061
975.934
975.803
975.668
975.532
975.394
975.257
975.122
974.992
974.867
974.749
974.641
974.545
974.462
974.394
974.343
974.311
974.299
974.308
974.339
974.394
974.471
974.573
974.697
974.845
975.014
975.205
975.416
975.646
975.893
976.155
976.431
976.719
977.016
977.32
977.631
977.945
978.261
978.578
978.893
979.204
979.512
979.814
980.109
980.396
980.674
980.943
981.202
981.451
981.689
981.916
982.131
982.336
982.529
982.711
982.883
983.044
983.194
983.334
983.465
983.586
983.698
983.802
983.898
983.986
984.066
984.139
984.205
984.265
984.317
984.364
984.404
984.437
984.464
984.484
984.497
984.504
984.503
984.494
984.477
984.452
984.417
984.374
984.32
984.257
984.182
984.097
984.001
983.892
983.772
983.639
983.494
983.337
983.167
982.985
982.79
982.584
982.366
982.137
981.897
981.647
981.387
981.119
980.842
980.559
980.269
979.973
979.672
979.366
979.057
978.745
978.43
978.112
977.792
977.47
977.144
976.811
976.474
976.137
975.78
975.399
975.03
974.643
974.151
973.656
973.263
972.631
971.678
971.186
970.753
968.865
967.236
967.335
966.522
964.908
1021.28
1019.1
1019.03
1018.92
1017.45
1017.04
1016.48
1015.63
1015.03
1014.74
1014.36
1013.92
1013.57
1013.31
1013.03
1012.75
1012.5
1012.26
1012.03
1011.79
1011.57
1011.34
1011.12
1010.89
1010.67
1010.44
1010.2
1009.97
1009.72
1009.47
1009.22
1008.96
1008.68
1008.4
1008.11
1007.81
1007.5
1007.18
1006.85
1006.5
1006.14
1005.76
1005.37
1004.97
1004.54
1004.11
1003.65
1003.18
1002.7
1002.19
1001.67
1001.13
1000.58
1000.01
999.423
998.821
998.205
997.576
996.934
996.281
995.617
994.945
994.265
993.58
992.891
992.2
991.508
990.818
990.13
989.449
988.773
988.107
987.45
986.806
986.175
985.559
984.96
984.377
983.813
983.268
982.743
982.238
981.755
981.293
980.852
980.433
980.036
979.66
979.305
978.971
978.659
978.366
978.093
977.84
977.605
977.389
977.19
977.008
976.843
976.694
976.559
976.44
976.335
976.243
976.163
976.096
976.04
975.995
975.96
975.936
975.92
975.913
975.914
975.923
975.938
975.96
975.988
976.021
976.059
976.101
976.148
976.197
976.25
976.305
976.362
976.42
976.48
976.54
976.6
976.659
976.719
976.777
976.833
976.888
976.94
976.99
977.037
977.081
977.121
977.157
977.189
977.216
977.239
977.257
977.27
977.277
977.279
977.276
977.266
977.25
977.229
977.201
977.166
977.125
977.078
977.023
976.962
976.893
976.818
976.735
976.645
976.548
976.443
976.332
976.215
976.091
975.962
975.829
975.691
975.552
975.411
975.27
975.131
974.996
974.866
974.743
974.63
974.528
974.44
974.368
974.312
974.275
974.259
974.265
974.293
974.344
974.419
974.519
974.643
974.789
974.959
975.151
975.363
975.594
975.843
976.107
976.386
976.676
976.976
977.283
977.597
977.914
978.233
978.552
978.87
979.184
979.494
979.799
980.096
980.385
980.665
980.936
981.197
981.447
981.686
981.914
982.131
982.336
982.53
982.713
982.885
983.046
983.196
983.337
983.468
983.589
983.702
983.806
983.902
983.99
984.07
984.144
984.21
984.27
984.323
984.37
984.411
984.445
984.473
984.495
984.509
984.517
984.517
984.51
984.495
984.471
984.439
984.397
984.346
984.285
984.212
984.13
984.035
983.928
983.81
983.679
983.535
983.379
983.211
983.029
982.836
982.63
982.412
982.183
981.942
981.692
981.432
981.162
980.885
980.6
980.308
980.011
979.708
979.402
979.091
978.777
978.461
978.142
977.821
977.497
977.172
976.842
976.502
976.163
975.822
975.448
975.053
974.692
974.277
973.72
973.254
972.896
972.054
971.074
970.964
970.176
967.996
967.729
967.862
966.266
1019.19
1019.22
1018.8
1017.33
1017.46
1017.32
1016.15
1015.53
1015.37
1014.95
1014.38
1014.03
1013.79
1013.47
1013.14
1012.88
1012.64
1012.39
1012.14
1011.91
1011.68
1011.45
1011.22
1010.99
1010.76
1010.53
1010.29
1010.05
1009.81
1009.55
1009.3
1009.03
1008.76
1008.47
1008.18
1007.88
1007.57
1007.24
1006.9
1006.55
1006.19
1005.81
1005.42
1005.01
1004.58
1004.14
1003.68
1003.21
1002.72
1002.21
1001.68
1001.14
1000.58
999.999
999.406
998.797
998.174
997.537
996.887
996.226
995.554
994.874
994.187
993.494
992.797
992.098
991.399
990.702
990.009
989.321
988.642
987.971
987.311
986.664
986.031
985.414
984.813
984.231
983.667
983.124
982.601
982.099
981.619
981.161
980.724
980.31
979.917
979.546
979.196
978.868
978.561
978.273
978.006
977.758
977.528
977.317
977.123
976.946
976.785
976.64
976.51
976.394
976.293
976.204
976.128
976.064
976.011
975.968
975.936
975.914
975.901
975.896
975.898
975.909
975.926
975.949
975.979
976.013
976.052
976.095
976.143
976.193
976.247
976.303
976.361
976.42
976.481
976.541
976.603
976.664
976.724
976.783
976.841
976.897
976.95
977.002
977.05
977.095
977.136
977.174
977.207
977.236
977.26
977.279
977.293
977.302
977.305
977.302
977.294
977.279
977.258
977.231
977.197
977.156
977.109
977.055
976.994
976.925
976.849
976.766
976.675
976.577
976.472
976.359
976.24
976.114
975.983
975.846
975.705
975.562
975.416
975.27
975.126
974.986
974.85
974.721
974.602
974.495
974.401
974.323
974.262
974.221
974.201
974.202
974.228
974.277
974.351
974.45
974.573
974.721
974.892
975.085
975.3
975.533
975.786
976.053
976.335
976.629
976.933
977.245
977.562
977.883
978.206
978.528
978.849
979.167
979.48
979.787
980.087
980.379
980.661
980.934
981.196
981.448
981.688
981.917
982.135
982.341
982.536
982.719
982.892
983.053
983.204
983.345
983.476
983.598
983.71
983.815
983.911
983.999
984.08
984.153
984.221
984.281
984.335
984.383
984.424
984.46
984.489
984.511
984.528
984.537
984.539
984.534
984.521
984.5
984.47
984.43
984.382
984.323
984.253
984.172
984.08
983.975
983.859
983.73
983.589
983.434
983.266
983.086
982.893
982.687
982.47
982.24
982
981.749
981.488
981.217
980.939
980.653
980.36
980.061
979.757
979.449
979.138
978.823
978.506
978.187
977.868
977.544
977.218
976.893
976.563
976.218
975.875
975.538
975.155
974.737
974.381
973.981
973.364
972.854
972.571
971.749
970.657
970.427
969.999
968.699
967.911
968.006
1018.14
1018.54
1018.06
1017.42
1017.24
1016.5
1016.14
1015.9
1015.34
1014.83
1014.55
1014.27
1013.9
1013.56
1013.31
1013.05
1012.78
1012.52
1012.29
1012.05
1011.81
1011.58
1011.35
1011.12
1010.88
1010.65
1010.41
1010.17
1009.92
1009.66
1009.4
1009.14
1008.86
1008.57
1008.28
1007.97
1007.66
1007.33
1006.99
1006.63
1006.27
1005.88
1005.49
1005.07
1004.64
1004.2
1003.73
1003.25
1002.75
1002.24
1001.7
1001.15
1000.58
999.996
999.394
998.776
998.143
997.495
996.835
996.163
995.48
994.789
994.091
993.388
992.68
991.972
991.263
990.557
989.855
989.16
988.473
987.795
987.13
986.479
985.843
985.223
984.621
984.038
983.475
982.933
982.412
981.914
981.437
980.983
980.551
980.141
979.754
979.389
979.046
978.724
978.423
978.142
977.881
977.639
977.416
977.211
977.023
976.852
976.697
976.558
976.433
976.323
976.226
976.142
976.07
976.01
975.96
975.921
975.892
975.873
975.862
975.859
975.865
975.877
975.896
975.921
975.951
975.987
976.027
976.072
976.12
976.172
976.226
976.283
976.341
976.401
976.462
976.525
976.586
976.648
976.71
976.77
976.828
976.886
976.941
976.993
977.043
977.089
977.132
977.172
977.207
977.237
977.263
977.284
977.3
977.311
977.315
977.314
977.308
977.294
977.275
977.249
977.216
977.177
977.13
977.077
977.016
976.948
976.872
976.788
976.696
976.597
976.49
976.376
976.255
976.126
975.991
975.852
975.707
975.558
975.408
975.257
975.107
974.96
974.819
974.684
974.559
974.446
974.347
974.263
974.198
974.152
974.128
974.127
974.15
974.198
974.271
974.37
974.494
974.643
974.817
975.013
975.231
975.468
975.724
975.996
976.283
976.581
976.89
977.206
977.528
977.853
978.18
978.507
978.832
979.153
979.469
979.779
980.082
980.376
980.661
980.935
981.199
981.452
981.694
981.924
982.143
982.35
982.545
982.729
982.902
983.064
983.215
983.356
983.487
983.609
983.722
983.826
983.923
984.012
984.093
984.167
984.235
984.296
984.351
984.4
984.443
984.48
984.511
984.535
984.553
984.564
984.569
984.566
984.555
984.536
984.509
984.472
984.426
984.37
984.303
984.224
984.135
984.033
983.918
983.792
983.652
983.499
983.333
983.154
982.961
982.756
982.539
982.309
982.069
981.817
981.555
981.284
981.005
980.718
980.424
980.124
979.82
979.511
979.199
978.885
978.569
978.25
977.932
977.613
977.289
976.964
976.643
976.314
975.966
975.628
975.297
974.899
974.477
974.148
973.72
973.067
972.649
972.343
971.427
970.656
970.46
969.707
968.954
968.886
1017.87
1017.57
1017.34
1017.47
1016.84
1016.27
1016.18
1015.75
1015.25
1014.97
1014.69
1014.31
1013.98
1013.73
1013.46
1013.18
1012.92
1012.68
1012.44
1012.2
1011.96
1011.73
1011.5
1011.26
1011.03
1010.79
1010.55
1010.3
1010.05
1009.8
1009.54
1009.27
1008.99
1008.7
1008.4
1008.09
1007.77
1007.44
1007.1
1006.74
1006.37
1005.98
1005.58
1005.16
1004.72
1004.27
1003.8
1003.31
1002.81
1002.28
1001.74
1001.18
1000.6
1000
999.387
998.756
998.111
997.451
996.777
996.091
995.396
994.691
993.979
993.262
992.542
991.82
991.1
990.382
989.669
988.963
988.267
987.582
986.91
986.253
985.612
984.989
984.384
983.8
983.237
982.696
982.177
981.682
981.209
980.759
980.333
979.929
979.549
979.19
978.854
978.54
978.246
977.973
977.72
977.486
977.271
977.073
976.893
976.729
976.581
976.448
976.33
976.225
976.134
976.055
975.988
975.933
975.888
975.853
975.828
975.812
975.804
975.805
975.812
975.827
975.847
975.874
975.906
975.943
975.984
976.03
976.079
976.131
976.186
976.243
976.302
976.362
976.423
976.485
976.547
976.61
976.671
976.732
976.792
976.85
976.906
976.959
977.01
977.058
977.103
977.144
977.181
977.214
977.242
977.265
977.283
977.296
977.304
977.305
977.301
977.29
977.272
977.248
977.218
977.18
977.135
977.082
977.022
976.955
976.879
976.795
976.703
976.603
976.495
976.379
976.255
976.124
975.986
975.842
975.694
975.541
975.385
975.229
975.074
974.922
974.774
974.634
974.503
974.384
974.28
974.191
974.122
974.073
974.046
974.043
974.065
974.112
974.186
974.286
974.412
974.563
974.74
974.939
975.161
975.403
975.664
975.941
976.232
976.536
976.85
977.171
977.497
977.827
978.159
978.489
978.818
979.143
979.462
979.775
980.08
980.377
980.663
980.94
981.205
981.46
981.703
981.934
982.153
982.36
982.556
982.74
982.913
983.075
983.227
983.368
983.5
983.622
983.735
983.84
983.937
984.026
984.108
984.184
984.253
984.315
984.371
984.422
984.466
984.505
984.537
984.564
984.584
984.598
984.604
984.604
984.595
984.58
984.555
984.521
984.478
984.425
984.361
984.285
984.198
984.099
983.987
983.863
983.725
983.574
983.41
983.232
983.04
982.836
982.619
982.39
982.149
981.897
981.635
981.364
981.084
980.796
980.502
980.201
979.897
979.589
979.278
978.964
978.649
978.333
978.016
977.7
977.385
977.065
976.742
976.429
976.106
975.755
975.424
975.11
974.704
974.269
973.973
973.56
972.887
972.471
972.194
971.45
970.718
970.438
970.062
969.397
1017.41
1017.21
1017.09
1016.9
1016.52
1016.38
1015.98
1015.54
1015.34
1015.05
1014.66
1014.36
1014.13
1013.85
1013.56
1013.31
1013.08
1012.83
1012.58
1012.35
1012.12
1011.89
1011.65
1011.42
1011.19
1010.95
1010.71
1010.46
1010.21
1009.95
1009.69
1009.42
1009.14
1008.85
1008.55
1008.24
1007.91
1007.58
1007.23
1006.87
1006.49
1006.1
1005.69
1005.27
1004.82
1004.36
1003.89
1003.39
1002.87
1002.34
1001.79
1001.21
1000.62
1000.01
999.384
998.74
998.079
997.404
996.715
996.013
995.301
994.58
993.852
993.119
992.382
991.645
990.91
990.178
989.452
988.734
988.027
987.332
986.651
985.986
985.34
984.712
984.105
983.519
982.956
982.416
981.899
981.406
980.938
980.493
980.073
979.676
979.303
978.953
978.624
978.318
978.034
977.769
977.525
977.3
977.093
976.904
976.732
976.576
976.437
976.311
976.2
976.103
976.018
975.946
975.885
975.835
975.796
975.765
975.745
975.732
975.728
975.732
975.742
975.758
975.781
975.81
975.843
975.881
975.923
975.969
976.018
976.07
976.125
976.182
976.24
976.3
976.361
976.422
976.484
976.546
976.607
976.668
976.727
976.785
976.842
976.896
976.948
976.997
977.043
977.086
977.125
977.159
977.19
977.216
977.237
977.253
977.263
977.267
977.266
977.258
977.244
977.223
977.195
977.159
977.116
977.066
977.007
976.941
976.866
976.783
976.691
976.591
976.482
976.364
976.239
976.105
975.964
975.817
975.665
975.508
975.348
975.187
975.027
974.87
974.717
974.572
974.437
974.313
974.205
974.113
974.04
973.989
973.96
973.956
973.978
974.026
974.101
974.203
974.331
974.486
974.666
974.87
975.097
975.344
975.609
975.891
976.188
976.497
976.815
977.141
977.472
977.807
978.142
978.477
978.809
979.137
979.459
979.775
980.082
980.38
980.669
980.947
981.213
981.469
981.712
981.944
982.163
982.371
982.567
982.751
982.924
983.087
983.238
983.38
983.511
983.634
983.748
983.853
983.951
984.041
984.124
984.201
984.271
984.335
984.393
984.446
984.492
984.533
984.568
984.596
984.619
984.635
984.645
984.647
984.642
984.629
984.608
984.577
984.537
984.487
984.426
984.353
984.27
984.173
984.064
983.943
983.807
983.658
983.496
983.319
983.129
982.926
982.71
982.481
982.241
981.989
981.727
981.455
981.175
980.887
980.593
980.293
979.989
979.682
979.373
979.061
978.748
978.436
978.123
977.81
977.5
977.192
976.878
976.562
976.261
975.945
975.597
975.282
974.98
974.567
974.158
973.88
973.442
972.849
972.485
972.093
971.46
971.001
970.583
970.032
1016.89
1016.92
1016.83
1016.49
1016.38
1016.21
1015.79
1015.56
1015.32
1014.98
1014.71
1014.48
1014.2
1013.92
1013.68
1013.45
1013.2
1012.96
1012.73
1012.51
1012.27
1012.04
1011.82
1011.59
1011.35
1011.11
1010.87
1010.63
1010.38
1010.12
1009.86
1009.58
1009.3
1009.01
1008.71
1008.4
1008.07
1007.73
1007.38
1007.02
1006.64
1006.24
1005.82
1005.39
1004.94
1004.48
1003.99
1003.48
1002.96
1002.41
1001.84
1001.26
1000.65
1000.03
999.387
998.727
998.049
997.356
996.648
995.928
995.197
994.457
993.71
992.957
992.203
991.448
990.694
989.946
989.205
988.472
987.752
987.045
986.354
985.681
985.027
984.394
983.784
983.196
982.632
982.093
981.579
981.089
980.626
980.187
979.774
979.385
979.019
978.678
978.359
978.062
977.787
977.533
977.299
977.083
976.886
976.707
976.544
976.398
976.267
976.15
976.047
975.958
975.881
975.816
975.761
975.718
975.684
975.659
975.643
975.635
975.635
975.642
975.655
975.674
975.699
975.729
975.763
975.802
975.845
975.891
975.94
975.991
976.045
976.101
976.158
976.216
976.276
976.336
976.396
976.456
976.516
976.576
976.634
976.691
976.747
976.801
976.853
976.902
976.949
976.993
977.033
977.07
977.103
977.131
977.155
977.174
977.187
977.195
977.198
977.193
977.183
977.165
977.141
977.109
977.069
977.022
976.966
976.902
976.828
976.747
976.656
976.556
976.447
976.329
976.202
976.068
975.925
975.776
975.62
975.461
975.297
975.133
974.969
974.808
974.652
974.503
974.364
974.238
974.127
974.033
973.958
973.906
973.877
973.873
973.895
973.945
974.022
974.127
974.259
974.418
974.602
974.811
975.042
975.294
975.565
975.852
976.154
976.467
976.791
977.121
977.456
977.795
978.134
978.472
978.807
979.137
979.462
979.779
980.088
980.387
980.676
980.955
981.222
981.478
981.722
981.953
982.173
982.381
982.576
982.761
982.934
983.096
983.247
983.389
983.521
983.644
983.758
983.864
983.963
984.055
984.139
984.218
984.29
984.356
984.416
984.47
984.52
984.563
984.6
984.632
984.658
984.677
984.69
984.695
984.693
984.683
984.665
984.638
984.601
984.554
984.497
984.428
984.347
984.254
984.148
984.029
983.897
983.75
983.59
983.415
983.227
983.025
982.81
982.583
982.343
982.092
981.831
981.559
981.28
980.993
980.699
980.401
980.098
979.792
979.485
979.176
978.867
978.558
978.252
977.946
977.639
977.338
977.042
976.735
976.43
976.146
975.841
975.497
975.202
974.919
974.509
974.118
973.854
973.441
972.897
972.532
972.164
971.622
971.109
970.637
1016.6
1016.59
1016.49
1016.36
1016.21
1015.92
1015.74
1015.56
1015.23
1014.98
1014.78
1014.51
1014.24
1014.02
1013.8
1013.55
1013.32
1013.1
1012.88
1012.65
1012.42
1012.2
1011.98
1011.75
1011.52
1011.29
1011.05
1010.81
1010.56
1010.3
1010.04
1009.76
1009.48
1009.19
1008.89
1008.57
1008.25
1007.91
1007.55
1007.18
1006.8
1006.39
1005.97
1005.54
1005.08
1004.6
1004.11
1003.59
1003.05
1002.49
1001.92
1001.32
1000.7
1000.05
999.395
998.716
998.019
997.306
996.578
995.837
995.085
994.323
993.554
992.78
992.003
991.227
990.455
989.687
988.928
988.179
987.443
986.723
986.021
985.338
984.676
984.037
983.422
982.832
982.268
981.73
981.219
980.734
980.275
979.844
979.437
979.057
978.701
978.369
978.06
977.774
977.51
977.266
977.043
976.839
976.653
976.484
976.332
976.196
976.075
975.967
975.874
975.793
975.724
975.667
975.62
975.583
975.555
975.536
975.526
975.522
975.526
975.537
975.554
975.576
975.603
975.634
975.67
975.709
975.752
975.797
975.845
975.896
975.948
976.002
976.057
976.113
976.17
976.227
976.285
976.342
976.4
976.456
976.512
976.567
976.621
976.674
976.724
976.773
976.819
976.863
976.904
976.942
976.976
977.007
977.033
977.055
977.072
977.084
977.09
977.09
977.084
977.071
977.051
977.023
976.988
976.945
976.892
976.832
976.762
976.683
976.594
976.496
976.388
976.271
976.145
976.01
975.867
975.717
975.56
975.399
975.235
975.068
974.902
974.739
974.581
974.431
974.29
974.163
974.051
973.956
973.882
973.83
973.802
973.8
973.824
973.876
973.957
974.065
974.201
974.364
974.553
974.766
975.002
975.259
975.535
975.827
976.133
976.451
976.779
977.113
977.452
977.793
978.135
978.475
978.812
979.144
979.47
979.788
980.098
980.398
980.687
980.966
981.233
981.488
981.731
981.962
982.181
982.388
982.583
982.767
982.94
983.101
983.253
983.394
983.526
983.65
983.765
983.872
983.972
984.065
984.151
984.231
984.306
984.374
984.437
984.495
984.547
984.593
984.634
984.669
984.698
984.721
984.737
984.745
984.747
984.741
984.726
984.702
984.669
984.626
984.572
984.507
984.429
984.34
984.237
984.122
983.992
983.849
983.691
983.519
983.333
983.133
982.92
982.694
982.456
982.206
981.946
981.676
981.398
981.112
980.821
980.524
980.224
979.921
979.616
979.311
979.007
978.703
978.4
978.103
977.807
977.51
977.223
976.941
976.645
976.355
976.09
975.797
975.469
975.197
974.92
974.535
974.184
973.898
973.493
973.051
972.658
972.228
971.762
971.177
1016.38
1016.32
1016.24
1016.19
1016.01
1015.81
1015.68
1015.43
1015.2
1015.02
1014.77
1014.53
1014.32
1014.11
1013.87
1013.65
1013.44
1013.22
1013
1012.79
1012.58
1012.36
1012.14
1011.92
1011.69
1011.46
1011.23
1010.99
1010.74
1010.48
1010.22
1009.95
1009.67
1009.38
1009.08
1008.76
1008.43
1008.09
1007.73
1007.36
1006.97
1006.56
1006.14
1005.69
1005.23
1004.74
1004.24
1003.71
1003.16
1002.59
1002
1001.38
1000.74
1000.09
999.407
998.708
997.99
997.255
996.505
995.74
994.964
994.177
993.384
992.585
991.785
990.985
990.19
989.401
988.621
987.854
987.102
986.366
985.651
984.957
984.287
983.641
983.022
982.429
981.865
981.328
980.819
980.34
979.887
979.463
979.065
978.694
978.348
978.028
977.73
977.456
977.204
976.973
976.762
976.569
976.395
976.238
976.098
975.973
975.862
975.765
975.681
975.61
975.55
975.501
975.462
975.433
975.412
975.4
975.395
975.397
975.406
975.42
975.44
975.465
975.494
975.527
975.564
975.604
975.646
975.691
975.738
975.787
975.837
975.888
975.94
975.993
976.046
976.099
976.153
976.206
976.26
976.312
976.365
976.416
976.466
976.515
976.563
976.61
976.654
976.697
976.737
976.775
976.81
976.841
976.87
976.894
976.914
976.929
976.94
976.944
976.943
976.935
976.92
976.898
976.868
976.83
976.783
976.727
976.662
976.587
976.503
976.408
976.303
976.189
976.065
975.932
975.79
975.641
975.486
975.325
975.161
974.995
974.83
974.667
974.509
974.359
974.219
974.093
973.982
973.889
973.816
973.766
973.741
973.742
973.77
973.826
973.91
974.022
974.163
974.331
974.524
974.742
974.983
975.244
975.524
975.82
976.131
976.452
976.783
977.12
977.462
977.805
978.148
978.49
978.828
979.161
979.487
979.805
980.114
980.413
980.702
980.979
981.245
981.499
981.741
981.971
982.188
982.394
982.588
982.77
982.942
983.103
983.253
983.394
983.527
983.65
983.766
983.874
983.975
984.07
984.158
984.241
984.318
984.389
984.455
984.516
984.572
984.622
984.666
984.705
984.738
984.764
984.784
984.797
984.802
984.8
984.789
984.769
984.74
984.7
984.65
984.589
984.515
984.429
984.33
984.218
984.092
983.952
983.797
983.628
983.445
983.248
983.038
982.814
982.578
982.33
982.072
981.805
981.529
981.245
980.956
980.662
980.365
980.066
979.766
979.465
979.166
978.869
978.574
978.282
977.998
977.714
977.431
977.16
976.896
976.615
976.344
976.101
975.822
975.515
975.265
975
974.642
974.317
974.027
973.647
973.213
972.818
972.383
971.742
1016.16
1016.14
1016.08
1015.98
1015.85
1015.75
1015.56
1015.36
1015.21
1015
1014.77
1014.58
1014.38
1014.16
1013.96
1013.76
1013.55
1013.34
1013.13
1012.93
1012.72
1012.51
1012.3
1012.08
1011.86
1011.63
1011.4
1011.17
1010.92
1010.67
1010.41
1010.14
1009.86
1009.57
1009.27
1008.96
1008.63
1008.28
1007.92
1007.55
1007.15
1006.74
1006.31
1005.86
1005.39
1004.9
1004.38
1003.84
1003.28
1002.7
1002.09
1001.46
1000.8
1000.12
999.424
998.703
997.962
997.203
996.427
995.637
994.833
994.02
993.199
992.373
991.546
990.72
989.899
989.086
988.284
987.496
986.725
985.974
985.243
984.537
983.858
983.204
982.581
981.986
981.421
980.887
980.382
979.907
979.463
979.047
978.659
978.298
977.964
977.656
977.372
977.11
976.871
976.654
976.456
976.277
976.115
975.971
975.843
975.73
975.631
975.546
975.473
975.412
975.362
975.322
975.292
975.27
975.257
975.251
975.253
975.26
975.274
975.293
975.317
975.344
975.376
975.41
975.448
975.488
975.531
975.574
975.62
975.666
975.714
975.762
975.81
975.858
975.907
975.955
976.004
976.052
976.1
976.147
976.194
976.24
976.285
976.33
976.373
976.415
976.456
976.496
976.534
976.57
976.604
976.636
976.665
976.691
976.713
976.731
976.745
976.754
976.757
976.755
976.746
976.73
976.706
976.674
976.634
976.585
976.526
976.457
976.379
976.29
976.191
976.081
975.962
975.833
975.695
975.55
975.398
975.241
975.08
974.917
974.755
974.595
974.44
974.293
974.157
974.033
973.925
973.836
973.767
973.722