# vtk DataFile Version 2.0
LBE mesh
ASCII
DATASET STRUCTURED_POINTS
DIMENSIONS 300 100 1
ASPECT_RATIO 1 1 1
ORIGIN 0 0 0
POINT_DATA 30000
SCALARS rho double 1
LOOKUP_TABLE default
1046.1
1014.29
1013.54
1020.02
1018.17
1014.22
1014
1014.49
1013.7
1012.87
1012.68
1012.49
1012.09
1011.76
1011.53
1011.29
1011.01
1010.76
1010.53
1010.29
1010.04
1009.8
1009.56
1009.31
1009.06
1008.8
1008.54
1008.27
1008
1007.71
1007.42
1007.12
1006.81
1006.49
1006.16
1005.81
1005.45
1005.08
1004.7
1004.3
1003.89
1003.46
1003.01
1002.55
1002.07
1001.58
1001.07
1000.54
999.993
999.428
998.846
998.247
997.631
996.999
996.351
995.687
995.009
994.317
993.613
992.898
992.173
991.439
990.699
989.953
989.204
988.453
987.703
986.955
986.211
985.473
984.744
984.024
983.316
982.622
981.944
981.281
980.637
980.012
979.409
978.827
978.267
977.731
977.219
976.731
976.267
975.829
975.414
975.026
974.661
974.321
974.005
973.713
973.444
973.199
972.975
972.773
972.592
972.431
972.291
972.169
972.067
971.983
971.917
971.867
971.834
971.817
971.814
971.828
971.855
971.896
971.951
972.019
972.099
972.192
972.296
972.412
972.539
972.676
972.825
972.983
973.15
973.327
973.513
973.708
973.911
974.122
974.34
974.566
974.798
975.038
975.283
975.534
975.791
976.052
976.317
976.587
976.859
977.135
977.413
977.692
977.973
978.254
978.535
978.814
979.093
979.369
979.643
979.913
980.179
980.441
980.697
980.947
981.191
981.427
981.656
981.876
982.088
982.291
982.484
982.667
982.84
983.003
983.154
983.294
983.423
983.541
983.648
983.743
983.827
983.899
983.96
984.009
984.047
984.073
984.087
984.09
984.082
984.06
984.027
983.98
983.921
983.848
983.76
983.659
983.542
983.41
983.263
983.101
982.922
982.728
982.518
982.293
982.054
981.802
981.537
981.262
980.978
980.687
980.39
980.091
979.792
979.495
979.203
978.919
978.645
978.385
978.141
977.916
977.712
977.532
977.377
977.25
977.152
977.083
977.045
977.038
977.062
977.116
977.2
977.313
977.453
977.619
977.81
978.021
978.253
978.502
978.766
979.043
979.33
979.625
979.925
980.228
980.532
980.835
981.135
981.43
981.72
982.002
982.275
982.539
982.792
983.034
983.265
983.484
983.691
983.887
984.072
984.246
984.409
984.562
984.706
984.842
984.97
985.091
985.207
985.317
985.423
985.525
985.625
985.722
985.818
985.913
986.007
986.1
986.193
986.286
986.377
986.469
986.558
986.646
986.732
986.814
986.892
986.965
987.032
987.091
987.142
987.183
987.211
987.227
987.229
987.211
987.173
987.122
987.043
986.916
986.781
986.64
986.379
986.035
985.841
985.514
984.58
983.98
984.246
982.346
978.497
980.684
981.62
957.34
1028.94
1025.36
1021.24
1016
1016.17
1016.31
1015.11
1013.92
1013.66
1013.38
1012.88
1012.46
1012.2
1011.91
1011.6
1011.33
1011.08
1010.83
1010.57
1010.32
1010.08
1009.83
1009.58
1009.33
1009.08
1008.82
1008.55
1008.28
1008
1007.71
1007.42
1007.11
1006.8
1006.48
1006.14
1005.79
1005.43
1005.06
1004.67
1004.27
1003.86
1003.43
1002.98
1002.52
1002.04
1001.54
1001.03
1000.5
999.951
999.386
998.803
998.204
997.587
996.954
996.306
995.642
994.965
994.273
993.57
992.856
992.132
991.4
990.661
989.917
989.17
988.422
987.674
986.929
986.188
985.453
984.727
984.011
983.306
982.616
981.94
981.281
980.64
980.019
979.419
978.84
978.283
977.75
977.241
976.756
976.295
975.859
975.447
975.06
974.698
974.36
974.046
973.755
973.488
973.243
973.02
972.819
972.639
972.479
972.339
972.218
972.117
972.033
971.966
971.917
971.883
971.866
971.864
971.876
971.904
971.944
971.998
972.066
972.145
972.237
972.341
972.456
972.582
972.719
972.866
973.023
973.19
973.366
973.55
973.744
973.946
974.155
974.373
974.597
974.829
975.067
975.311
975.561
975.816
976.076
976.34
976.609
976.88
977.155
977.432
977.71
977.99
978.269
978.549
978.828
979.106
979.382
979.655
979.924
980.19
980.451
980.706
980.956
981.199
981.435
981.664
981.884
982.096
982.298
982.491
982.675
982.848
983.01
983.161
983.301
983.431
983.549
983.655
983.75
983.834
983.906
983.967
984.016
984.053
984.079
984.093
984.096
984.087
984.065
984.032
983.986
983.926
983.854
983.767
983.666
983.551
983.421
983.275
983.114
982.938
982.745
982.538
982.316
982.079
981.83
981.568
981.295
981.013
980.724
980.43
980.132
979.834
979.538
979.246
978.962
978.688
978.427
978.182
977.955
977.75
977.567
977.41
977.28
977.178
977.106
977.065
977.054
977.073
977.124
977.204
977.313
977.45
977.612
977.799
978.008
978.237
978.483
978.744
979.019
979.304
979.597
979.896
980.197
980.501
980.803
981.103
981.399
981.688
981.971
982.245
982.509
982.764
983.007
983.239
983.46
983.669
983.866
984.053
984.228
984.392
984.547
984.692
984.829
984.958
985.081
985.197
985.307
985.414
985.517
985.616
985.714
985.809
985.903
985.997
986.09
986.182
986.273
986.364
986.454
986.542
986.629
986.713
986.794
986.87
986.941
987.007
987.064
987.112
987.151
987.178
987.19
987.187
987.169
987.129
987.063
986.979
986.87
986.71
986.51
986.312
986.029
985.587
985.188
984.844
983.943
982.732
982.341
981.24
977.044
973.216
971.14
1020.82
1025.62
1020.91
1016.58
1016.81
1016.5
1015.09
1014.12
1013.9
1013.53
1012.98
1012.58
1012.31
1012
1011.68
1011.4
1011.15
1010.89
1010.62
1010.37
1010.12
1009.87
1009.62
1009.36
1009.1
1008.84
1008.57
1008.29
1008.01
1007.72
1007.43
1007.12
1006.8
1006.48
1006.14
1005.79
1005.43
1005.05
1004.67
1004.26
1003.85
1003.41
1002.97
1002.5
1002.02
1001.52
1001.01
1000.48
999.927
999.36
998.776
998.175
997.557
996.923
996.273
995.608
994.929
994.237
993.533
992.818
992.093
991.361
990.621
989.878
989.131
988.383
987.635
986.89
986.15
985.416
984.691
983.976
983.273
982.584
981.911
981.254
980.616
979.997
979.399
978.823
978.269
977.738
977.232
976.749
976.291
975.857
975.448
975.064
974.704
974.368
974.056
973.768
973.502
973.26
973.038
972.839
972.66
972.502
972.363
972.244
972.143
972.06
971.994
971.945
971.913
971.896
971.894
971.907
971.934
971.975
972.029
972.096
972.176
972.268
972.371
972.486
972.612
972.748
972.894
973.051
973.217
973.392
973.577
973.769
973.971
974.18
974.396
974.62
974.851
975.089
975.332
975.581
975.836
976.095
976.359
976.626
976.898
977.171
977.448
977.726
978.005
978.284
978.564
978.843
979.12
979.396
979.669
979.938
980.204
980.465
980.721
980.971
981.214
981.45
981.679
981.899
982.112
982.314
982.508
982.691
982.864
983.027
983.178
983.319
983.448
983.566
983.673
983.768
983.851
983.924
983.984
984.033
984.07
984.096
984.11
984.112
984.103
984.082
984.049
984.003
983.944
983.872
983.787
983.687
983.574
983.445
983.301
983.142
982.967
982.777
982.571
982.351
982.116
981.868
981.607
981.335
981.054
980.765
980.47
980.171
979.872
979.574
979.28
978.993
978.716
978.452
978.203
977.972
977.763
977.576
977.414
977.28
977.174
977.098
977.053
977.038
977.054
977.102
977.179
977.286
977.42
977.581
977.766
977.973
978.201
978.447
978.709
978.983
979.269
979.562
979.862
980.165
980.469
980.773
981.075
981.372
981.663
981.947
982.223
982.489
982.746
982.991
983.224
983.447
983.657
983.856
984.044
984.22
984.385
984.541
984.687
984.825
984.954
985.076
985.193
985.303
985.409
985.512
985.611
985.708
985.803
985.896
985.989
986.081
986.172
986.263
986.353
986.442
986.53
986.616
986.699
986.779
986.855
986.926
986.99
987.047
987.095
987.132
987.158
987.17
987.165
987.145
987.108
987.039
986.944
986.842
986.695
986.463
986.244
986.049
985.592
984.993
984.831
984.336
982.468
981.748
982.796
978.46
972.734
976.949
1020.54
1019.25
1018.7
1019.86
1017.33
1015.2
1015.14
1015.04
1014.11
1013.38
1013.13
1012.85
1012.42
1012.06
1011.79
1011.52
1011.23
1010.96
1010.7
1010.44
1010.18
1009.93
1009.67
1009.41
1009.15
1008.88
1008.61
1008.33
1008.05
1007.76
1007.46
1007.15
1006.83
1006.5
1006.16
1005.81
1005.45
1005.07
1004.68
1004.28
1003.86
1003.42
1002.97
1002.51
1002.02
1001.52
1001.01
1000.47
999.919
999.349
998.763
998.159
997.538
996.901
996.248
995.581
994.898
994.203
993.496
992.778
992.05
991.315
990.573
989.826
989.077
988.326
987.577
986.83
986.088
985.353
984.627
983.912
983.208
982.519
981.846
981.19
980.553
979.936
979.339
978.765
978.214
977.686
977.181
976.702
976.247
975.816
975.41
975.029
974.672
974.339
974.03
973.745
973.482
973.242
973.024
972.827
972.65
972.494
972.358
972.24
972.141
972.06
971.996
971.948
971.917
971.901
971.901
971.915
971.943
971.984
972.04
972.108
972.188
972.28
972.384
972.499
972.625
972.762
972.909
973.065
973.232
973.407
973.591
973.784
973.985
974.194
974.411
974.635
974.866
975.103
975.346
975.596
975.85
976.109
976.373
976.641
976.912
977.186
977.463
977.741
978.02
978.3
978.58
978.859
979.137
979.413
979.687
979.957
980.223
980.485
980.741
980.992
981.236
981.473
981.702
981.923
982.136
982.339
982.533
982.717
982.89
983.054
983.206
983.346
983.476
983.594
983.701
983.796
983.879
983.951
984.012
984.06
984.098
984.123
984.137
984.14
984.131
984.11
984.077
984.032
983.974
983.904
983.819
983.721
983.609
983.482
983.34
983.182
983.009
982.82
982.615
982.396
982.161
981.913
981.652
981.379
981.096
980.805
980.507
980.205
979.902
979.599
979.301
979.009
978.726
978.456
978.201
977.964
977.749
977.556
977.389
977.25
977.139
977.059
977.009
976.991
977.004
977.05
977.126
977.231
977.365
977.525
977.711
977.919
978.149
978.396
978.66
978.937
979.225
979.521
979.823
980.129
980.437
980.744
981.048
981.348
981.643
981.93
982.208
982.477
982.736
982.983
983.219
983.443
983.655
983.855
984.044
984.221
984.387
984.543
984.689
984.826
984.956
985.078
985.193
985.303
985.408
985.51
985.608
985.704
985.798
985.891
985.983
986.074
986.165
986.256
986.345
986.434
986.521
986.607
986.691
986.771
986.848
986.919
986.983
987.041
987.09
987.128
987.154
987.168
987.166
987.143
987.104
987.049
986.958
986.829
986.698
986.536
986.252
985.955
985.759
985.302
984.5
984.188
983.927
982.103
980.563
980.805
979.958
978.045
1020.53
1018.33
1018.24
1018.11
1016.62
1016.18
1015.6
1014.72
1014.09
1013.78
1013.38
1012.9
1012.53
1012.24
1011.93
1011.62
1011.34
1011.07
1010.8
1010.53
1010.27
1010.01
1009.75
1009.49
1009.22
1008.95
1008.68
1008.4
1008.11
1007.82
1007.51
1007.2
1006.88
1006.55
1006.21
1005.86
1005.49
1005.11
1004.72
1004.31
1003.89
1003.45
1003
1002.53
1002.04
1001.54
1001.02
1000.48
999.927
999.354
998.763
998.155
997.53
996.888
996.23
995.557
994.87
994.169
993.456
992.732
991.999
991.258
990.51
989.758
989.003
988.248
987.493
986.742
985.996
985.257
984.527
983.809
983.104
982.413
981.739
981.082
980.445
979.828
979.233
978.66
978.111
977.585
977.083
976.607
976.155
975.728
975.326
974.948
974.595
974.267
973.962
973.68
973.421
973.185
972.97
972.777
972.604
972.452
972.318
972.204
972.107
972.028
971.967
971.922
971.893
971.879
971.881
971.897
971.927
971.971
972.028
972.097
972.179
972.273
972.378
972.495
972.622
972.76
972.907
973.065
973.233
973.409
973.594
973.788
973.99
974.2
974.417
974.642
974.873
975.111
975.355
975.605
975.861
976.121
976.385
976.654
976.925
977.2
977.477
977.757
978.037
978.317
978.598
978.878
979.157
979.434
979.708
979.98
980.247
980.51
980.767
981.019
981.264
981.502
981.732
981.954
982.168
982.372
982.567
982.751
982.926
983.089
983.242
983.383
983.513
983.632
983.739
983.834
983.918
983.99
984.05
984.098
984.136
984.161
984.176
984.178
984.169
984.148
984.116
984.072
984.015
983.945
983.862
983.766
983.655
983.529
983.388
983.232
983.059
982.871
982.667
982.447
982.212
981.962
981.699
981.423
981.137
980.841
980.538
980.231
979.921
979.612
979.306
979.006
978.716
978.438
978.175
977.931
977.708
977.509
977.335
977.19
977.074
976.989
976.936
976.915
976.927
976.971
977.046
977.152
977.287
977.449
977.637
977.848
978.081
978.331
978.599
978.88
979.172
979.473
979.78
980.091
980.402
980.714
981.023
981.327
981.625
981.916
982.198
982.47
982.731
982.982
983.22
983.446
983.66
983.861
984.05
984.228
984.395
984.551
984.697
984.834
984.962
985.083
985.198
985.307
985.411
985.511
985.608
985.703
985.796
985.888
985.98
986.07
986.161
986.251
986.341
986.43
986.518
986.605
986.69
986.771
986.849
986.922
986.989
987.048
987.099
987.141
987.169
987.184
987.188
987.172
987.132
987.078
987.008
986.889
986.734
986.602
986.405
986.045
985.776
985.621
984.947
984.122
984.233
983.608
981.474
981.36
981.601
979.805
1018.44
1018.45
1018.01
1016.52
1016.64
1016.47
1015.27
1014.63
1014.44
1014
1013.4
1013.02
1012.75
1012.41
1012.05
1011.76
1011.49
1011.2
1010.92
1010.65
1010.39
1010.13
1009.86
1009.59
1009.32
1009.05
1008.77
1008.49
1008.2
1007.9
1007.6
1007.28
1006.96
1006.63
1006.28
1005.93
1005.56
1005.18
1004.78
1004.37
1003.95
1003.51
1003.05
1002.58
1002.09
1001.58
1001.06
1000.51
999.954
999.375
998.778
998.163
997.532
996.883
996.217
995.537
994.841
994.132
993.411
992.679
991.937
991.187
990.43
989.67
988.906
988.143
987.38
986.622
985.869
985.124
984.389
983.666
982.956
982.261
981.585
980.926
980.288
979.671
979.076
978.504
977.956
977.433
976.934
976.461
976.012
975.589
975.191
974.818
974.47
974.147
973.847
973.57
973.316
973.085
972.875
972.686
972.518
972.37
972.24
972.13
972.037
971.963
971.905
971.863
971.838
971.827
971.832
971.851
971.885
971.931
971.991
972.063
972.147
972.244
972.351
972.47
972.6
972.74
972.89
973.05
973.22
973.398
973.585
973.781
973.985
974.197
974.416
974.642
974.876
975.115
975.361
975.613
975.869
976.131
976.397
976.667
976.94
977.216
977.494
977.775
978.056
978.339
978.621
978.902
979.182
979.46
979.736
980.008
980.277
980.541
980.8
981.053
981.299
981.538
981.769
981.993
982.207
982.412
982.608
982.794
982.969
983.133
983.286
983.428
983.558
983.677
983.784
983.88
983.964
984.036
984.096
984.145
984.182
984.208
984.222
984.225
984.216
984.196
984.164
984.12
984.064
983.995
983.914
983.818
983.708
983.584
983.443
983.288
983.115
982.927
982.722
982.501
982.263
982.011
981.744
981.464
981.172
980.87
980.56
980.245
979.927
979.609
979.294
978.984
978.684
978.397
978.125
977.872
977.641
977.434
977.254
977.102
976.981
976.893
976.836
976.814
976.824
976.868
976.944
977.052
977.189
977.354
977.546
977.761
977.998
978.255
978.527
978.814
979.112
979.419
979.732
980.048
980.366
980.683
980.997
981.306
981.609
981.904
982.19
982.466
982.731
982.984
983.225
983.453
983.669
983.871
984.061
984.24
984.406
984.562
984.708
984.844
984.971
985.091
985.205
985.312
985.415
985.515
985.61
985.704
985.797
985.888
985.979
986.07
986.161
986.251
986.342
986.432
986.522
986.61
986.697
986.781
986.861
986.937
987.007
987.07
987.124
987.17
987.205
987.226
987.231
987.225
987.2
987.143
987.074
986.999
986.862
986.674
986.544
986.361
985.942
985.635
985.574
984.936
984.022
984.039
983.816
982.64
981.979
982.101
1017.39
1017.77
1017.28
1016.62
1016.42
1015.66
1015.27
1015.01
1014.43
1013.88
1013.58
1013.27
1012.87
1012.51
1012.22
1011.94
1011.63
1011.34
1011.07
1010.8
1010.53
1010.26
1009.99
1009.73
1009.45
1009.18
1008.9
1008.61
1008.32
1008.02
1007.71
1007.4
1007.07
1006.74
1006.39
1006.03
1005.66
1005.27
1004.88
1004.46
1004.03
1003.59
1003.13
1002.65
1002.16
1001.64
1001.11
1000.56
999.997
999.411
998.806
998.184
997.543
996.885
996.21
995.519
994.813
994.093
993.361
992.617
991.863
991.101
990.333
989.561
988.786
988.012
987.239
986.47
985.708
984.954
984.211
983.48
982.764
982.065
981.383
980.722
980.081
979.463
978.867
978.296
977.749
977.228
976.732
976.262
975.818
975.399
975.006
974.639
974.296
973.978
973.684
973.413
973.165
972.94
972.736
972.553
972.39
972.247
972.123
972.018
971.93
971.86
971.807
971.77
971.749
971.743
971.752
971.776
971.813
971.864
971.927
972.003
972.092
972.192
972.303
972.426
972.559
972.703
972.856
973.02
973.192
973.374
973.565
973.764
973.971
974.186
974.408
974.638
974.874
975.116
975.364
975.619
975.878
976.141
976.41
976.682
976.957
977.235
977.515
977.797
978.081
978.365
978.649
978.932
979.213
979.493
979.77
980.044
980.313
980.579
980.838
981.093
981.34
981.58
981.813
982.037
982.253
982.458
982.655
982.842
983.017
983.182
983.336
983.478
983.609
983.729
983.836
983.932
984.016
984.088
984.149
984.198
984.235
984.261
984.275
984.278
984.27
984.25
984.218
984.175
984.119
984.051
983.97
983.875
983.765
983.641
983.501
983.345
983.173
982.983
982.776
982.552
982.312
982.055
981.783
981.497
981.198
980.888
980.57
980.246
979.917
979.589
979.263
978.943
978.632
978.334
978.052
977.79
977.55
977.335
977.148
976.991
976.866
976.773
976.715
976.69
976.701
976.746
976.823
976.933
977.074
977.244
977.44
977.661
977.904
978.167
978.446
978.74
979.045
979.358
979.678
980.001
980.326
980.649
980.969
981.285
981.593
981.893
982.184
982.464
982.732
982.989
983.232
983.463
983.68
983.884
984.075
984.253
984.42
984.576
984.721
984.856
984.982
985.101
985.213
985.32
985.421
985.519
985.614
985.707
985.799
985.89
985.981
986.073
986.164
986.256
986.348
986.44
986.532
986.624
986.713
986.8
986.885
986.965
987.039
987.108
987.168
987.219
987.261
987.291
987.305
987.302
987.291
987.258
987.189
987.117
987.042
986.884
986.692
986.596
986.392
985.948
985.766
985.714
985.011
984.487
984.579
984.06
983.54
983.62
1017.13
1016.81
1016.56
1016.68
1016.02
1015.43
1015.32
1014.87
1014.34
1014.03
1013.73
1013.32
1012.96
1012.68
1012.39
1012.07
1011.78
1011.51
1011.24
1010.96
1010.69
1010.42
1010.15
1009.88
1009.6
1009.33
1009.05
1008.76
1008.46
1008.16
1007.85
1007.54
1007.21
1006.87
1006.52
1006.16
1005.78
1005.4
1005
1004.58
1004.15
1003.7
1003.23
1002.75
1002.25
1001.73
1001.19
1000.63
1000.06
999.463
998.849
998.216
997.565
996.895
996.208
995.505
994.786
994.052
993.305
992.547
991.779
991.002
990.22
989.433
988.644
987.855
987.068
986.286
985.512
984.747
983.993
983.253
982.529
981.823
981.136
980.47
979.825
979.204
978.608
978.037
977.491
976.972
976.479
976.012
975.573
975.159
974.772
974.41
974.074
973.762
973.475
973.211
972.97
972.751
972.553
972.377
972.221
972.084
971.967
971.867
971.786
971.722
971.674
971.643
971.627
971.627
971.641
971.669
971.712
971.767
971.836
971.917
972.01
972.116
972.232
972.36
972.498
972.647
972.805
972.974
973.151
973.338
973.533
973.737
973.949
974.168
974.395
974.628
974.868
975.115
975.367
975.624
975.887
976.154
976.426
976.701
976.979
977.259
977.542
977.826
978.112
978.398
978.683
978.968
979.251
979.533
979.811
980.086
980.357
980.623
980.883
981.138
981.387
981.627
981.861
982.086
982.302
982.508
982.705
982.893
983.069
983.234
983.388
983.531
983.662
983.782
983.89
983.986
984.071
984.143
984.203
984.253
984.29
984.316
984.331
984.334
984.325
984.305
984.274
984.231
984.176
984.107
984.026
983.931
983.822
983.697
983.557
983.4
983.226
983.035
982.825
982.598
982.353
982.091
981.812
981.519
981.212
980.893
980.565
980.23
979.891
979.551
979.214
978.882
978.56
978.252
977.96
977.688
977.439
977.217
977.023
976.861
976.731
976.636
976.576
976.551
976.562
976.608
976.688
976.802
976.947
977.122
977.324
977.551
977.801
978.071
978.358
978.659
978.972
979.293
979.62
979.951
980.282
980.613
980.94
981.261
981.575
981.881
982.176
982.461
982.733
982.993
983.239
983.472
983.691
983.896
984.088
984.267
984.434
984.589
984.733
984.867
984.993
985.11
985.221
985.327
985.427
985.525
985.619
985.712
985.803
985.895
985.987
986.079
986.172
986.266
986.361
986.456
986.551
986.646
986.74
986.832
986.921
987.007
987.088
987.162
987.231
987.29
987.339
987.377
987.406
987.416
987.409
987.398
987.363
987.286
987.217
987.16
986.996
986.8
986.755
986.589
986.157
986.025
986.052
985.601
985.188
985.252
985.238
984.857
1016.67
1016.46
1016.32
1016.11
1015.7
1015.55
1015.12
1014.66
1014.43
1014.12
1013.71
1013.38
1013.12
1012.82
1012.49
1012.21
1011.95
1011.67
1011.39
1011.12
1010.86
1010.59
1010.32
1010.05
1009.77
1009.5
1009.21
1008.92
1008.63
1008.33
1008.02
1007.7
1007.37
1007.03
1006.68
1006.31
1005.93
1005.54
1005.14
1004.72
1004.28
1003.83
1003.36
1002.87
1002.36
1001.83
1001.29
1000.72
1000.14
999.531
998.905
998.261
997.596
996.913
996.212
995.494
994.759
994.009
993.246
992.47
991.684
990.89
990.09
989.285
988.479
987.673
986.87
986.073
985.284
984.505
983.738
982.987
982.253
981.538
980.844
980.172
979.523
978.899
978.301
977.73
977.185
976.668
976.178
975.715
975.28
974.873
974.491
974.136
973.807
973.503
973.222
972.966
972.732
972.521
972.331
972.162
972.013
971.884
971.773
971.681
971.606
971.548
971.507
971.482
971.472
971.478
971.499
971.533
971.582
971.643
971.718
971.805
971.905
972.016
972.139
972.273
972.417
972.572
972.737
972.912
973.096
973.289
973.49
973.7
973.918
974.143
974.376
974.615
974.861
975.112
975.369
975.632
975.899
976.17
976.446
976.725
977.006
977.29
977.576
977.863
978.15
978.439
978.726
979.013
979.297
979.58
979.859
980.135
980.406
980.673
980.934
981.189
981.438
981.679
981.912
982.137
982.353
982.56
982.757
982.943
983.12
983.285
983.439
983.582
983.714
983.833
983.942
984.038
984.122
984.195
984.256
984.305
984.343
984.369
984.384
984.387
984.379
984.359
984.327
984.284
984.228
984.16
984.078
983.983
983.873
983.748
983.606
983.447
983.271
983.077
982.864
982.632
982.382
982.114
981.829
981.527
981.212
980.883
980.545
980.199
979.849
979.497
979.148
978.805
978.472
978.152
977.85
977.569
977.312
977.083
976.883
976.716
976.583
976.485
976.423
976.399
976.411
976.459
976.543
976.66
976.81
976.991
977.2
977.434
977.691
977.969
978.264
978.573
978.894
979.223
979.558
979.897
980.236
980.574
980.907
981.235
981.555
981.866
982.167
982.456
982.732
982.995
983.245
983.48
983.7
983.907
984.1
984.279
984.445
984.6
984.744
984.877
985.002
985.118
985.228
985.333
985.432
985.529
985.624
985.717
985.809
985.901
985.995
986.089
986.184
986.281
986.379
986.478
986.578
986.678
986.777
986.875
986.97
987.063
987.152
987.235
987.311
987.381
987.441
987.49
987.53
987.56
987.568
987.563
987.56
987.529
987.453
987.406
987.369
987.212
987.066
987.075
986.921
986.628
986.616
986.597
986.361
986.322
986.369
986.292
1016.15
1016.17
1016.06
1015.7
1015.57
1015.38
1014.94
1014.69
1014.43
1014.06
1013.76
1013.5
1013.2
1012.89
1012.62
1012.36
1012.08
1011.81
1011.55
1011.29
1011.02
1010.76
1010.49
1010.22
1009.95
1009.67
1009.39
1009.1
1008.81
1008.51
1008.2
1007.88
1007.55
1007.21
1006.85
1006.49
1006.11
1005.71
1005.3
1004.88
1004.44
1003.98
1003.5
1003.01
1002.49
1001.96
1001.4
1000.83
1000.23
999.613
998.975
998.317
997.638
996.94
996.222
995.486
994.734
993.965
993.182
992.387
991.581
990.766
989.945
989.12
988.293
987.467
986.645
985.83
985.024
984.229
983.448
982.683
981.937
981.212
980.509
979.83
979.176
978.549
977.949
977.377
976.833
976.318
975.831
975.374
974.944
974.542
974.168
973.82
973.498
973.202
972.93
972.682
972.457
972.254
972.072
971.911
971.77
971.648
971.545
971.46
971.393
971.342
971.308
971.29
971.287
971.3
971.327
971.368
971.423
971.492
971.574
971.668
971.775
971.893
972.023
972.165
972.317
972.479
972.652
972.835
973.027
973.228
973.437
973.654
973.879
974.112
974.352
974.598
974.851
975.109
975.372
975.641
975.914
976.19
976.471
976.754
977.04
977.328
977.617
977.907
978.198
978.488
978.778
979.066
979.352
979.635
979.915
980.191
980.463
980.73
980.991
981.245
981.493
981.733
981.966
982.19
982.405
982.611
982.807
982.993
983.168
983.333
983.486
983.628
983.759
983.878
983.986
984.082
984.167
984.239
984.3
984.35
984.387
984.414
984.429
984.432
984.424
984.404
984.372
984.328
984.272
984.203
984.121
984.024
983.913
983.786
983.642
983.481
983.302
983.105
982.888
982.651
982.396
982.121
981.829
981.52
981.195
980.857
980.508
980.151
979.79
979.427
979.067
978.713
978.369
978.039
977.727
977.438
977.174
976.938
976.733
976.561
976.425
976.325
976.263
976.239
976.252
976.303
976.391
976.513
976.668
976.855
977.07
977.312
977.577
977.862
978.166
978.483
978.812
979.15
979.493
979.84
980.186
980.531
980.872
981.207
981.533
981.849
982.155
982.448
982.729
982.995
983.247
983.484
983.707
983.914
984.108
984.287
984.454
984.608
984.751
984.884
985.008
985.124
985.233
985.337
985.436
985.533
985.628
985.722
985.815
985.91
986.005
986.102
986.201
986.301
986.404
986.508
986.613
986.719
986.824
986.929
987.033
987.134
987.232
987.325
987.412
987.492
987.566
987.629
987.68
987.725
987.762
987.775
987.776
987.79
987.773
987.708
987.695
987.697
987.57
987.483
987.555
987.491
987.332
987.402
987.52
987.485
987.55
987.73
1015.87
1015.85
1015.73
1015.58
1015.41
1015.1
1014.9
1014.69
1014.34
1014.07
1013.84
1013.55
1013.25
1013
1012.75
1012.47
1012.21
1011.96
1011.7
1011.44
1011.18
1010.93
1010.67
1010.4
1010.13
1009.86
1009.58
1009.29
1009
1008.7
1008.39
1008.07
1007.74
1007.4
1007.04
1006.68
1006.29
1005.9
1005.49
1005.06
1004.61
1004.15
1003.66
1003.16
1002.64
1002.1
1001.53
1000.95
1000.34
999.709
999.058
998.384
997.69
996.974
996.238
995.483
994.71
993.92
993.115
992.298
991.469
990.63
989.786
988.937
988.087
987.239
986.395
985.559
984.733
983.919
983.121
982.341
981.582
980.845
980.132
979.445
978.786
978.155
977.552
976.979
976.437
975.924
975.442
974.989
974.565
974.171
973.804
973.465
973.152
972.864
972.601
972.362
972.146
971.952
971.779
971.627
971.495
971.381
971.286
971.209
971.15
971.107
971.08
971.07
971.074
971.094
971.128
971.177
971.239
971.315
971.405
971.507
971.621
971.748
971.886
972.036
972.197
972.369
972.551
972.742
972.943
973.153
973.372
973.598
973.832
974.074
974.323
974.577
974.838
975.105
975.376
975.652
975.932
976.215
976.501
976.79
977.082
977.374
977.667
977.961
978.255
978.548
978.839
979.129
979.416
979.7
979.981
980.256
980.527
980.793
981.053
981.306
981.552
981.791
982.021
982.243
982.456
982.66
982.854
983.037
983.211
983.373
983.525
983.665
983.795
983.913
984.02
984.115
984.198
984.27
984.331
984.38
984.418
984.444
984.458
984.462
984.453
984.433
984.401
984.357
984.3
984.231
984.147
984.049
983.936
983.807
983.661
983.497
983.315
983.114
982.892
982.651
982.39
982.109
981.81
981.493
981.16
980.813
980.454
980.087
979.716
979.343
978.972
978.608
978.254
977.915
977.596
977.298
977.027
976.786
976.576
976.401
976.262
976.161
976.099
976.075
976.091
976.145
976.236
976.363
976.524
976.717
976.939
977.188
977.461
977.754
978.066
978.392
978.729
979.075
979.427
979.781
980.136
980.488
980.835
981.176
981.508
981.83
982.141
982.438
982.722
982.992
983.247
983.486
983.71
983.918
984.112
984.292
984.458
984.612
984.755
984.887
985.01
985.125
985.234
985.338
985.438
985.535
985.631
985.726
985.822
985.919
986.017
986.118
986.221
986.326
986.434
986.544
986.655
986.768
986.882
986.995
987.108
987.219
987.326
987.431
987.531
987.623
987.709
987.79
987.861
987.919
987.974
988.023
988.046
988.065
988.104
988.107
988.075
988.112
988.151
988.094
988.107
988.223
988.256
988.302
988.468
988.641
988.868
989.105
1015.66
1015.58
1015.49
1015.42
1015.22
1015
1014.84
1014.58
1014.32
1014.11
1013.85
1013.58
1013.34
1013.1
1012.84
1012.59
1012.35
1012.1
1011.84
1011.6
1011.35
1011.1
1010.84
1010.58
1010.32
1010.05
1009.77
1009.49
1009.2
1008.9
1008.59
1008.27
1007.94
1007.6
1007.25
1006.88
1006.5
1006.1
1005.68
1005.25
1004.8
1004.33
1003.84
1003.33
1002.8
1002.25
1001.68
1001.08
1000.46
999.818
999.152
998.462
997.75
997.016
996.26
995.484
994.688
993.875
993.046
992.203
991.348
990.484
989.613
988.737
987.861
986.988
986.12
985.259
984.411
983.576
982.759
981.962
981.187
980.437
979.714
979.018
978.353
977.717
977.113
976.54
975.999
975.49
975.011
974.565
974.148
973.761
973.403
973.073
972.769
972.492
972.239
972.01
971.804
971.62
971.457
971.314
971.191
971.086
971
970.931
970.879
970.845
970.826
970.823
970.835
970.863
970.905
970.961
971.031
971.115
971.213
971.323
971.446
971.582
971.729
971.889
972.059
972.24
972.433
972.634
972.846
973.066
973.295
973.532
973.777
974.029
974.288
974.553
974.823
975.099
975.38
975.664
975.953
976.244
976.537
976.833
977.13
977.428
977.726
978.024
978.322
978.617
978.911
979.202
979.491
979.775
980.055
980.331
980.601
980.865
981.122
981.373
981.616
981.852
982.079
982.298
982.507
982.707
982.897
983.077
983.247
983.406
983.554
983.692
983.818
983.934
984.038
984.131
984.213
984.283
984.343
984.391
984.427
984.453
984.467
984.47
984.461
984.441
984.408
984.364
984.306
984.236
984.151
984.051
983.937
983.805
983.657
983.49
983.305
983.1
982.874
982.628
982.362
982.075
981.769
981.445
981.104
980.749
980.383
980.007
979.627
979.245
978.865
978.492
978.13
977.784
977.457
977.154
976.877
976.63
976.417
976.239
976.098
975.997
975.934
975.912
975.93
975.987
976.083
976.214
976.381
976.58
976.809
977.066
977.346
977.647
977.967
978.301
978.647
979.001
979.36
979.722
980.084
980.444
980.798
981.145
981.482
981.809
982.124
982.426
982.713
982.986
983.243
983.484
983.709
983.918
984.113
984.293
984.459
984.612
984.754
984.886
985.008
985.123
985.232
985.336
985.436
985.535
985.632
985.73
985.828
985.928
986.031
986.136
986.244
986.355
986.469
986.585
986.705
986.826
986.948
987.071
987.194
987.315
987.435
987.552
987.665
987.773
987.874
987.969
988.061
988.142
988.211
988.283
988.351
988.392
988.438
988.513
988.55
988.566
988.662
988.761
988.795
988.908
989.112
989.277
989.469
989.765
990.123
990.476
1015.44
1015.41
1015.34
1015.22
1015.07
1014.95
1014.74
1014.51
1014.34
1014.11
1013.86
1013.64
1013.42
1013.17
1012.93
1012.71
1012.47
1012.23
1011.99
1011.75
1011.51
1011.26
1011.01
1010.76
1010.5
1010.23
1009.96
1009.69
1009.4
1009.1
1008.8
1008.48
1008.15
1007.81
1007.46
1007.09
1006.71
1006.31
1005.89
1005.46
1005
1004.53
1004.04
1003.52
1002.98
1002.42
1001.84
1001.23
1000.6
999.94
999.257
998.551
997.82
997.066
996.288
995.488
994.668
993.829
992.973
992.102
991.219
990.326
989.425
988.52
987.615
986.713
985.817
984.93
984.057
983.199
982.361
981.545
980.753
979.989
979.254
978.549
977.877
977.237
976.63
976.058
975.519
975.013
974.541
974.101
973.692
973.315
972.966
972.646
972.353
972.087
971.845
971.627
971.432
971.259
971.107
970.974
970.86
970.765
970.688
970.628
970.585
970.559
970.548
970.553
970.573
970.608
970.658
970.722
970.801
970.893
970.999
971.118
971.25
971.395
971.552
971.722
971.903
972.095
972.298
972.511
972.734
972.966
973.207
973.456
973.713
973.976
974.247
974.523
974.805
975.092
975.383
975.678
975.976
976.276
976.578
976.881
977.186
977.49
977.794
978.097
978.398
978.697
978.993
979.286
979.576
979.861
980.14
980.414
980.682
980.944
981.199
981.446
981.686
981.917
982.139
982.353
982.557
982.751
982.936
983.111
983.275
983.429
983.573
983.705
983.827
983.938
984.039
984.128
984.206
984.274
984.331
984.377
984.412
984.436
984.449
984.451
984.442
984.421
984.388
984.342
984.284
984.212
984.126
984.026