# vtk DataFile Version 2.0
LBE mesh
ASCII
DATASET STRUCTURED_POINTS
DIMENSIONS 300 100 1
ASPECT_RATIO 1 1 1
ORIGIN 0 0 0
POINT_DATA 30000
SCALARS rho double 1
LOOKUP_TABLE default
1047.16
1015.49
1014.75
1021.19
1019.34
1015.42
1015.21
1015.7
1014.9
1014.09
1013.9
1013.72
1013.32
1013
1012.78
1012.54
1012.28
1012.04
1011.82
1011.59
1011.36
1011.13
1010.91
1010.68
1010.44
1010.21
1009.97
1009.72
1009.47
1009.21
1008.94
1008.66
1008.38
1008.09
1007.78
1007.47
1007.14
1006.8
1006.45
1006.09
1005.71
1005.32
1004.91
1004.49
1004.05
1003.6
1003.13
1002.64
1002.14
1001.62
1001.09
1000.54
999.97
999.387
998.789
998.176
997.549
996.91
996.258
995.595
994.921
994.24
993.551
992.857
992.158
991.457
990.755
990.054
989.357
988.663
987.976
987.297
986.629
985.971
985.327
984.697
984.083
983.486
982.907
982.347
981.807
981.288
980.789
980.313
979.858
979.424
979.013
978.624
978.256
977.911
977.586
977.282
976.998
976.735
976.49
976.265
976.057
975.868
975.695
975.539
975.398
975.272
975.161
975.064
974.979
974.908
974.847
974.799
974.761
974.733
974.715
974.706
974.705
974.712
974.727
974.748
974.777
974.811
974.85
974.895
974.944
974.997
975.054
975.114
975.178
975.244
975.311
975.381
975.452
975.524
975.596
975.669
975.742
975.814
975.885
975.955
976.024
976.091
976.157
976.22
976.281
976.339
976.393
976.445
976.492
976.536
976.576
976.612
976.644
976.671
976.693
976.711
976.723
976.731
976.733
976.73
976.722
976.71
976.692
976.671
976.646
976.617
976.586
976.552
976.518
976.485
976.452
976.423
976.398
976.378
976.365
976.362
976.368
976.387
976.419
976.466
976.529
976.61
976.708
976.827
976.964
977.122
977.301
977.499
977.716
977.954
978.21
978.483
978.772
979.076
979.394
979.724
980.063
980.411
980.766
981.126
981.488
981.853
982.217
982.579
982.938
983.292
983.641
983.983
984.316
984.641
984.956
985.26
985.553
985.835
986.105
986.362
986.607
986.84
987.06
987.268
987.463
987.646
987.817
987.976
988.123
988.259
988.384
988.498
988.601
988.694
988.776
988.849
988.912
988.964
989.008
989.041
989.065
989.079
989.083
989.076
989.059
989.031
988.992
988.942
988.879
988.804
988.716
988.615
988.499
988.37
988.227
988.069
987.897
987.709
987.507
987.29
987.058
986.812
986.552
986.279
985.992
985.694
985.384
985.064
984.735
984.398
984.053
983.703
983.349
982.992
982.632
982.272
981.914
981.557
981.204
980.855
980.511
980.174
979.843
979.519
979.204
978.895
978.592
978.296
978.005
977.714
977.422
977.136
976.839
976.512
976.19
975.875
975.453
974.957
974.61
974.135
973.087
972.357
972.454
970.482
966.713
968.744
969.586
946.566
1030.07
1026.51
1022.41
1017.2
1017.36
1017.5
1016.3
1015.13
1014.87
1014.6
1014.1
1013.68
1013.43
1013.16
1012.85
1012.59
1012.35
1012.11
1011.86
1011.63
1011.4
1011.16
1010.93
1010.7
1010.46
1010.22
1009.97
1009.72
1009.47
1009.2
1008.93
1008.66
1008.37
1008.07
1007.77
1007.45
1007.12
1006.78
1006.43
1006.06
1005.68
1005.29
1004.88
1004.45
1004.01
1003.56
1003.09
1002.6
1002.1
1001.58
1001.04
1000.49
999.924
999.341
998.743
998.13
997.504
996.864
996.213
995.551
994.879
994.198
993.511
992.818
992.122
991.423
990.723
990.025
989.33
988.64
987.956
987.28
986.614
985.96
985.319
984.692
984.082
983.487
982.912
982.355
981.818
981.301
980.806
980.331
979.879
979.448
979.039
978.652
978.286
977.942
977.618
977.316
977.033
976.771
976.527
976.303
976.096
975.907
975.735
975.579
975.439
975.313
975.202
975.105
975.02
974.949
974.889
974.84
974.802
974.774
974.756
974.747
974.746
974.753
974.768
974.789
974.817
974.851
974.891
974.936
974.985
975.038
975.095
975.156
975.219
975.285
975.352
975.422
975.493
975.565
975.637
975.71
975.783
975.855
975.926
975.996
976.065
976.132
976.197
976.26
976.32
976.377
976.432
976.483
976.53
976.573
976.612
976.648
976.679
976.705
976.727
976.744
976.756
976.763
976.765
976.762
976.754
976.741
976.724
976.702
976.677
976.649
976.617
976.585
976.551
976.517
976.485
976.455
976.43
976.41
976.397
976.392
976.398
976.416
976.447
976.492
976.553
976.632
976.728
976.844
976.979
977.135
977.31
977.505
977.72
977.954
978.207
978.477
978.764
979.065
979.38
979.707
980.044
980.39
980.743
981.1
981.461
981.824
982.187
982.548
982.906
983.26
983.608
983.948
984.282
984.606
984.921
985.225
985.519
985.8
986.071
986.329
986.575
986.808
987.029
987.237
987.433
987.617
987.788
987.948
988.096
988.232
988.358
988.472
988.576
988.669
988.752
988.825
988.889
988.942
988.986
989.02
989.044
989.058
989.063
989.057
989.04
989.013
988.975
988.925
988.863
988.789
988.702
988.602
988.489
988.361
988.22
988.063
987.892
987.707
987.506
987.29
987.06
986.816
986.557
986.286
986.001
985.704
985.395
985.076
984.748
984.411
984.068
983.718
983.363
983.006
982.646
982.286
981.926
981.568
981.212
980.861
980.515
980.175
979.841
979.513
979.193
978.88
978.573
978.27
977.972
977.678
977.381
977.078
976.773
976.46
976.112
975.737
975.374
974.936
974.353
973.81
973.327
972.312
971.01
970.49
969.362
965.28
961.614
959.851
1021.97
1026.76
1022.08
1017.76
1017.99
1017.69
1016.29
1015.32
1015.11
1014.74
1014.2
1013.8
1013.54
1013.24
1012.93
1012.66
1012.41
1012.16
1011.91
1011.68
1011.44
1011.2
1010.96
1010.73
1010.49
1010.24
1009.99
1009.74
1009.48
1009.22
1008.94
1008.66
1008.37
1008.07
1007.77
1007.45
1007.12
1006.77
1006.42
1006.05
1005.67
1005.27
1004.86
1004.44
1003.99
1003.54
1003.07
1002.58
1002.07
1001.55
1001.01
1000.46
999.892
999.308
998.708
998.094
997.467
996.826
996.174
995.511
994.839
994.158
993.47
992.778
992.081
991.382
990.683
989.986
989.292
988.602
987.919
987.245
986.581
985.928
985.289
984.665
984.056
983.465
982.892
982.337
981.803
981.289
980.796
980.324
979.874
979.445
979.039
978.654
978.291
977.948
977.627
977.326
977.046
976.785
976.543
976.32
976.115
975.927
975.756
975.601
975.462
975.338
975.228
975.131
975.047
974.976
974.917
974.869
974.831
974.804
974.786
974.777
974.777
974.784
974.8
974.821
974.85
974.884
974.924
974.969
975.019
975.073
975.13
975.191
975.255
975.321
975.389
975.459
975.53
975.602
975.675
975.748
975.821
975.893
975.965
976.035
976.104
976.171
976.236
976.299
976.359
976.416
976.47
976.52
976.567
976.611
976.65
976.684
976.715
976.741
976.762
976.779
976.791
976.797
976.799
976.795
976.787
976.774
976.756
976.734
976.709
976.679
976.648
976.614
976.579
976.544
976.511
976.48
976.453
976.431
976.416
976.41
976.413
976.428
976.456
976.498
976.557
976.633
976.726
976.839
976.971
977.123
977.296
977.489
977.701
977.933
978.184
978.452
978.737
979.037
979.351
979.677
980.013
980.358
980.71
981.068
981.429
981.792
982.154
982.516
982.874
983.228
983.576
983.918
984.251
984.577
984.892
985.197
985.491
985.774
986.044
986.303
986.549
986.784
987.005
987.214
987.411
987.595
987.767
987.927
988.076
988.213
988.339
988.453
988.557
988.651
988.735
988.808
988.872
988.926
988.97
989.004
989.029
989.044
989.049
989.044
989.029
989.003
988.966
988.917
988.857
988.784
988.699
988.601
988.489
988.364
988.224
988.069
987.9
987.716
987.517
987.303
987.075
986.832
986.575
986.304
986.02
985.723
985.415
985.097
984.768
984.431
984.087
983.736
983.381
983.022
982.661
982.298
981.936
981.576
981.218
980.864
980.515
980.171
979.834
979.504
979.179
978.862
978.552
978.245
977.942
977.643
977.346
977.038
976.721
976.413
976.076
975.669
975.286
974.931
974.331
973.602
973.289
972.66
970.738
969.915
970.789
966.608
961.231
965.48
1021.69
1020.41
1019.86
1021.02
1018.5
1016.39
1016.33
1016.24
1015.31
1014.59
1014.35
1014.07
1013.65
1013.3
1013.04
1012.77
1012.49
1012.23
1011.99
1011.74
1011.5
1011.26
1011.02
1010.77
1010.53
1010.28
1010.03
1009.77
1009.51
1009.24
1008.97
1008.69
1008.4
1008.09
1007.78
1007.46
1007.13
1006.79
1006.43
1006.06
1005.67
1005.28
1004.86
1004.44
1003.99
1003.54
1003.06
1002.57
1002.06
1001.54
1001
1000.44
999.872
999.285
998.682
998.066
997.435
996.792
996.137
995.471
994.796
994.112
993.422
992.727
992.028
991.328
990.627
989.928
989.232
988.541
987.858
987.183
986.519
985.867
985.229
984.605
983.998
983.408
982.837
982.284
981.753
981.241
980.751
980.282
979.835
979.41
979.006
978.624
978.264
977.925
977.607
977.309
977.031
976.773
976.534
976.314
976.111
975.925
975.756
975.603
975.466
975.343
975.234
975.139
975.057
974.987
974.929
974.882
974.846
974.819
974.802
974.794
974.795
974.803
974.819
974.842
974.871
974.906
974.947
974.992
975.042
975.097
975.155
975.217
975.281
975.348
975.417
975.487
975.559
975.632
975.705
975.779
975.852
975.925
975.997
976.068
976.138
976.205
976.27
976.333
976.393
976.451
976.505
976.556
976.602
976.646
976.684
976.719
976.75
976.775
976.796
976.813
976.824
976.83
976.832
976.828
976.819
976.805
976.786
976.763
976.737
976.706
976.673
976.638
976.601
976.564
976.528
976.494
976.464
976.439
976.421
976.411
976.411
976.422
976.446
976.485
976.539
976.611
976.702
976.811
976.94
977.09
977.26
977.45
977.661
977.892
978.142
978.409
978.694
978.993
979.307
979.634
979.971
980.317
980.67
981.029
981.391
981.755
982.119
982.482
982.842
983.197
983.547
983.89
984.225
984.551
984.868
985.174
985.469
985.753
986.024
986.284
986.531
986.766
986.988
987.197
987.395
987.579
987.752
987.913
988.061
988.199
988.325
988.44
988.544
988.639
988.723
988.797
988.861
988.915
988.96
988.995
989.021
989.036
989.043
989.039
989.025
989
988.965
988.918
988.859
988.789
988.705
988.609
988.5
988.376
988.238
988.086
987.919
987.737
987.539
987.327
987.1
986.858
986.602
986.332
986.048
985.752
985.443
985.124
984.795
984.457
984.111
983.758
983.401
983.04
982.676
982.311
981.946
981.583
981.222
980.865
980.513
980.166
979.825
979.492
979.165
978.845
978.53
978.223
977.919
977.615
977.314
977.016
976.701
976.366
976.043
975.702
975.255
974.802
974.449
973.851
972.928
972.466
972.063
970.194
968.593
968.74
967.984
966.438
1021.68
1019.49
1019.4
1019.28
1017.79
1017.36
1016.78
1015.91
1015.29
1014.98
1014.59
1014.12
1013.75
1013.47
1013.17
1012.87
1012.59
1012.34
1012.08
1011.83
1011.58
1011.34
1011.09
1010.84
1010.6
1010.35
1010.09
1009.83
1009.57
1009.3
1009.02
1008.74
1008.44
1008.14
1007.83
1007.5
1007.17
1006.82
1006.46
1006.09
1005.7
1005.3
1004.89
1004.46
1004.01
1003.55
1003.07
1002.58
1002.07
1001.54
1001
1000.44
999.861
999.27
998.663
998.041
997.406
996.757
996.097
995.426
994.745
994.056
993.361
992.661
991.957
991.252
990.547
989.844
989.144
988.451
987.765
987.088
986.423
985.769
985.13
984.506
983.9
983.311
982.741
982.191
981.661
981.152
980.665
980.199
979.756
979.334
978.935
978.557
978.201
977.866
977.552
977.259
976.985
976.731
976.496
976.279
976.079
975.897
975.731
975.581
975.447
975.327
975.22
975.128
975.048
974.979
974.923
974.878
974.843
974.818
974.802
974.796
974.797
974.806
974.823
974.847
974.877
974.913
974.954
975.001
975.052
975.107
975.166
975.228
975.294
975.361
975.431
975.502
975.575
975.649
975.723
975.797
975.872
975.946
976.018
976.09
976.16
976.229
976.295
976.358
976.419
976.477
976.532
976.583
976.631
976.674
976.713
976.748
976.779
976.805
976.826
976.842
976.852
976.858
976.859
976.855
976.845
976.83
976.81
976.786
976.758
976.725
976.69
976.652
976.612
976.573
976.533
976.496
976.462
976.432
976.41
976.395
976.39
976.397
976.416
976.451
976.501
976.569
976.656
976.762
976.888
977.036
977.204
977.393
977.603
977.833
978.083
978.351
978.636
978.937
979.253
979.581
979.92
980.268
980.624
980.984
981.349
981.715
982.082
982.447
982.809
983.167
983.518
983.863
984.2
984.528
984.846
985.154
985.451
985.735
986.008
986.269
986.517
986.752
986.975
987.185
987.383
987.568
987.741
987.902
988.051
988.189
988.316
988.431
988.536
988.63
988.714
988.789
988.854
988.909
988.954
988.99
989.017
989.034
989.041
989.039
989.027
989.004
988.97
988.925
988.869
988.801
988.72
988.626
988.519
988.398
988.262
988.112
987.947
987.767
987.571
987.36
987.134
986.894
986.638
986.368
986.084
985.787
985.478
985.158
984.827
984.487
984.139
983.784
983.424
983.06
982.693
982.325
981.957
981.59
981.226
980.866
980.51
980.161
979.817
979.481
979.152
978.83
978.514
978.204
977.902
977.602
977.297
976.998
976.7
976.371
976.024
975.709
975.34
974.824
974.398
974.078
973.267
972.312
972.238
971.481
969.326
969.112
969.326
967.828
1019.59
1019.6
1019.17
1017.68
1017.8
1017.63
1016.45
1015.81
1015.63
1015.19
1014.6
1014.23
1013.96
1013.63
1013.28
1013
1012.74
1012.47
1012.2
1011.94
1011.69
1011.44
1011.19
1010.94
1010.69
1010.44
1010.18
1009.92
1009.65
1009.38
1009.1
1008.81
1008.52
1008.21
1007.9
1007.57
1007.23
1006.88
1006.52
1006.15
1005.76
1005.36
1004.94
1004.5
1004.05
1003.59
1003.11
1002.61
1002.09
1001.56
1001.01
1000.44
999.861
999.263
998.649
998.02
997.377
996.721
996.053
995.374
994.685
993.989
993.285
992.577
991.866
991.153
990.441
989.731
989.026
988.327
987.636
986.955
986.286
985.63
984.989
984.364
983.757
983.168
982.6
982.052
981.524
981.018
980.534
980.073
979.634
979.217
978.822
978.45
978.099
977.77
977.461
977.173
976.904
976.655
976.425
976.213
976.018
975.841
975.679
975.533
975.402
975.286
975.183
975.093
975.016
974.951
974.897
974.854
974.821
974.797
974.784
974.778
974.781
974.792
974.809
974.834
974.865
974.902
974.944
974.991
975.043
975.099
975.158
975.221
975.287
975.356
975.426
975.498
975.572
975.647
975.722
975.798
975.873
975.948
976.022
976.095
976.167
976.236
976.303
976.368
976.43
976.489
976.545
976.597
976.646
976.69
976.73
976.766
976.797
976.823
976.844
976.86
976.871
976.877
976.878
976.872
976.861
976.846
976.825
976.799
976.768
976.733
976.695
976.654
976.611
976.568
976.524
976.482
976.444
976.41
976.382
976.362
976.352
976.354
976.368
976.398
976.444
976.509
976.592
976.696
976.82
976.965
977.132
977.321
977.531
977.761
978.012
978.282
978.569
978.872
979.19
979.521
979.863
980.215
980.573
980.937
981.305
981.674
982.044
982.412
982.777
983.137
983.491
983.838
984.177
984.507
984.827
985.136
985.434
985.721
985.995
986.256
986.505
986.741
986.965
987.175
987.374
987.559
987.733
987.894
988.044
988.182
988.309
988.425
988.53
988.625
988.709
988.784
988.85
988.906
988.952
988.989
989.017
989.035
989.045
989.044
989.033
989.013
988.981
988.939
988.885
988.819
988.741
988.65
988.545
988.427
988.294
988.147
987.984
987.806
987.612
987.402
987.177
986.937
986.681
986.411
986.127
985.829
985.519
985.197
984.864
984.522
984.171
983.813
983.45
983.083
982.713
982.341
981.969
981.599
981.232
980.868
980.51
980.158
979.812
979.474
979.143
978.82
978.505
978.196
977.891
977.596
977.301
976.996
976.697
976.407
976.071
975.699
975.39
975.033
974.455
973.981
973.733
972.939
971.875
971.683
971.301
970.054
969.347
969.575
1018.54
1018.92
1018.43
1017.77
1017.57
1016.82
1016.43
1016.17
1015.6
1015.06
1014.77
1014.47
1014.07
1013.72
1013.44
1013.17
1012.87
1012.6
1012.34
1012.08
1011.82
1011.57
1011.32
1011.07
1010.81
1010.56
1010.3
1010.03
1009.76
1009.49
1009.21
1008.92
1008.62
1008.31
1007.99
1007.67
1007.33
1006.97
1006.61
1006.23
1005.84
1005.43
1005.01
1004.57
1004.12
1003.65
1003.16
1002.65
1002.13
1001.59
1001.03
1000.46
999.87
999.263
998.641
998.002
997.349
996.683
996.004
995.314
994.615
993.907
993.193
992.474
991.752
991.03
990.308
989.589
988.875
988.168
987.471
986.784
986.11
985.45
984.805
984.178
983.57
982.981
982.413
981.866
981.341
980.838
980.358
979.901
979.467
979.056
978.667
978.301
977.957
977.634
977.331
977.05
976.788
976.546
976.322
976.116
975.927
975.755
975.599
975.458
975.332
975.22
975.122
975.036
974.962
974.9
974.849
974.808
974.778
974.757
974.744
974.741
974.745
974.757
974.776
974.801
974.833
974.87
974.913
974.96
975.012
975.069
975.129
975.192
975.258
975.327
975.398
975.471
975.545
975.621
975.697
975.774
975.85
975.926
976.002
976.076
976.149
976.22
976.289
976.355
976.42
976.48
976.538
976.592
976.642
976.688
976.729
976.766
976.798
976.825
976.847
976.864
976.875
976.881
976.882
976.876
976.864
976.847
976.825
976.797
976.764
976.727
976.686
976.642
976.595
976.548
976.5
976.453
976.41
976.371
976.338
976.313
976.298
976.295
976.305
976.331
976.373
976.434
976.514
976.616
976.738
976.883
977.05
977.238
977.449
977.681
977.934
978.206
978.496
978.802
979.124
979.458
979.804
980.159
980.521
980.889
981.26
981.633
982.006
982.377
982.745
983.108
983.465
983.814
984.155
984.487
984.809
985.12
985.419
985.707
985.982
986.244
986.494
986.731
986.955
987.166
987.365
987.551
987.725
987.887
988.037
988.176
988.303
988.419
988.525
988.62
988.706
988.782
988.848
988.905
988.953
988.991
989.02
989.04
989.051
989.053
989.044
989.026
988.997
988.957
988.906
988.843
988.768
988.68
988.578
988.463
988.332
988.188
988.027
987.851
987.659
987.451
987.227
986.987
986.731
986.461
986.176
985.877
985.565
985.241
984.906
984.56
984.207
983.846
983.48
983.109
982.735
982.36
981.985
981.611
981.241
980.874
980.513
980.159
979.811
979.472
979.141
978.817
978.503
978.197
977.895
977.599
977.313
977.024
976.72
976.428
976.145
975.794
975.418
975.133
974.745
974.126
973.742
973.47
972.582
971.845
971.704
971.014
970.349
970.427
1018.27
1017.95
1017.7
1017.82
1017.17
1016.58
1016.47
1016.02
1015.5
1015.2
1014.9
1014.5
1014.15
1013.88
1013.6
1013.29
1013.01
1012.75
1012.49
1012.23
1011.97
1011.72
1011.47
1011.21
1010.96
1010.7
1010.44
1010.17
1009.9
1009.62
1009.34
1009.05
1008.75
1008.44
1008.12
1007.79
1007.44
1007.09
1006.72
1006.34
1005.94
1005.53
1005.1
1004.66
1004.2
1003.72
1003.23
1002.72
1002.19
1001.64
1001.07
1000.49
999.89
999.272
998.638
997.987
997.322
996.643
995.951
995.248
994.535
993.813
993.086
992.353
991.618
990.883
990.148
989.418
988.693
987.976
987.27
986.575
985.894
985.228
984.579
983.949
983.338
982.749
982.181
981.635
981.113
980.614
980.138
979.686
979.258
978.853
978.471
978.111
977.775
977.459
977.165
976.891
976.637
976.403
976.187
975.988
975.806
975.641
975.492
975.357
975.237
975.13
975.036
974.955
974.886
974.827
974.779
974.742
974.714
974.695
974.685
974.683
974.688
974.701
974.721
974.747
974.779
974.816
974.859
974.906
974.958
975.014
975.074
975.137
975.203
975.272
975.343
975.416
975.49
975.566
975.642
975.72
975.797
975.874
975.951
976.027
976.101
976.174
976.245
976.314
976.38
976.443
976.503
976.559
976.612
976.66
976.704
976.742
976.776
976.805
976.829
976.847
976.859
976.865
976.866
976.86
976.849
976.831
976.807
976.778
976.744
976.704
976.66
976.613
976.563
976.512
976.46
976.409
976.361
976.317
976.28
976.25
976.231
976.224
976.23
976.252
976.292
976.35
976.429
976.528
976.65
976.795
976.962
977.152
977.365
977.599
977.854
978.129
978.423
978.733
979.058
979.396
979.746
980.105
980.471
980.843
981.218
981.594
981.97
982.344
982.715
983.08
983.439
983.791
984.134
984.468
984.791
985.103
985.404
985.693
985.968
986.232
986.482
986.72
986.944
987.156
987.355
987.542
987.716
987.879
988.029
988.168
988.296
988.413
988.519
988.616
988.702
988.779
988.847
988.905
988.954
988.994
989.025
989.047
989.06
989.064
989.058
989.042
989.016
988.979
988.931
988.871
988.799
988.713
988.615
988.502
988.375
988.233
988.075
987.901
987.711
987.504
987.281
987.042
986.787
986.516
986.23
985.93
985.616
985.29
984.952
984.604
984.247
983.883
983.513
983.139
982.762
982.383
982.004
981.628
981.254
980.885
980.522
980.166
979.817
979.476
979.145
978.823
978.509
978.205
977.911
977.619
977.331
977.058
976.779
976.474
976.19
975.924
975.563
975.171
974.915
974.539
973.896
973.513
973.271
972.563
971.881
971.668
971.387
970.871
1017.8
1017.59
1017.45
1017.24
1016.84
1016.68
1016.26
1015.81
1015.58
1015.28
1014.87
1014.55
1014.3
1014
1013.69
1013.42
1013.17
1012.9
1012.63
1012.38
1012.13
1011.88
1011.62
1011.37
1011.12
1010.86
1010.6
1010.33
1010.06
1009.78
1009.49
1009.2
1008.9
1008.59
1008.26
1007.93
1007.59
1007.23
1006.86
1006.47
1006.07
1005.65
1005.22
1004.77
1004.31
1003.82
1003.32
1002.8
1002.26
1001.7
1001.13
1000.53
999.919
999.289
998.64
997.976
997.296
996.601
995.894
995.175
994.445
993.708
992.963
992.214
991.463
990.712
989.963
989.219
988.481
987.752
987.034
986.329
985.64
984.967
984.313
983.678
983.065
982.474
981.906
981.362
980.842
980.347
979.876
979.43
979.008
978.61
978.235
977.884
977.556
977.25
976.964
976.699
976.454
976.229
976.021
975.831
975.658
975.5
975.358
975.231
975.117
975.016
974.929
974.852
974.788
974.734
974.69
974.656
974.63
974.614
974.606
974.606
974.612
974.626
974.646
974.672
974.704
974.741
974.783
974.83
974.88
974.936
974.994
975.056
975.121
975.189
975.259
975.331
975.404
975.479
975.556
975.633
975.711
975.788
975.866
975.942
976.018
976.093
976.166
976.236
976.305
976.371
976.434
976.493
976.549
976.6
976.647
976.688
976.725
976.757
976.783
976.803
976.817
976.825
976.827
976.822
976.811
976.793
976.77
976.739
976.703
976.662
976.616
976.567
976.514
976.459
976.404
976.35
976.298
976.251
976.21
976.177
976.155
976.144
976.148
976.167
976.205
976.262
976.34
976.439
976.562
976.707
976.876
977.068
977.283
977.52
977.779
978.057
978.354
978.668
978.997
979.339
979.693
980.056
980.426
980.801
981.179
981.559
981.938
982.315
982.688
983.055
983.416
983.77
984.114
984.449
984.773
985.086
985.388
985.677
985.953
986.217
986.468
986.705
986.931
987.143
987.342
987.529
987.704
987.867
988.018
988.157
988.286
988.404
988.512
988.609
988.697
988.775
988.844
988.904
988.955
988.997
989.03
989.054
989.07
989.076
989.072
989.059
989.036
989.002
988.957
988.9
988.831
988.75
988.654
988.545
988.421
988.282
988.126
987.955
987.766
987.561
987.34
987.101
986.846
986.575
986.288
985.987
985.671
985.343
985.002
984.652
984.292
983.925
983.551
983.173
982.792
982.411
982.029
981.65
981.274
980.902
980.537
980.179
979.83
979.489
979.158
978.837
978.527
978.224
977.934
977.653
977.372
977.096
976.838
976.568
976.267
975.999
975.742
975.372
975.002
974.761
974.355
973.791
973.462
973.107
972.523
972.129
971.802
971.402
1017.28
1017.29
1017.18
1016.82
1016.7
1016.5
1016.07
1015.82
1015.57
1015.21
1014.91
1014.66
1014.37
1014.07
1013.81
1013.56
1013.29
1013.03
1012.78
1012.54
1012.28
1012.03
1011.79
1011.54
1011.28
1011.03
1010.77
1010.5
1010.23
1009.95
1009.66
1009.37
1009.07
1008.75
1008.43
1008.09
1007.75
1007.39
1007.01
1006.62
1006.22
1005.8
1005.36
1004.9
1004.43
1003.94
1003.43
1002.9
1002.35
1001.78
1001.19
1000.58
999.958
999.313
998.649
997.968
997.272
996.56
995.834
995.096
994.348
993.59
992.827
992.059
991.29
990.52
989.754
988.992
988.239
987.496
986.765
986.049
985.349
984.668
984.007
983.368
982.751
982.159
981.591
981.048
980.531
980.039
979.574
979.134
978.719
978.329
977.964
977.622
977.304
977.007
976.731
976.477
976.242
976.026
975.828
975.648
975.483
975.335
975.201
975.081
974.975
974.882
974.8
974.73
974.671
974.621
974.582
974.551
974.529
974.516
974.51
974.51
974.518
974.533
974.553
974.579
974.61
974.646
974.686
974.732
974.781
974.834
974.89
974.95
975.012
975.078
975.145
975.215
975.287
975.361
975.436
975.512
975.589
975.665
975.743
975.82
975.897
975.973
976.047
976.12
976.191
976.259
976.325
976.388
976.447
976.502
976.552
976.598
976.639
976.674
976.704
976.727
976.744
976.755
976.759
976.757
976.747
976.731
976.708
976.678
976.642
976.601
976.554
976.503
976.449
976.393
976.336
976.279
976.226
976.176
976.133
976.098
976.073
976.061
976.064
976.082
976.119
976.176
976.254
976.355
976.479
976.626
976.797
976.992
977.21
977.45
977.712
977.995
978.296
978.613
978.946
979.292
979.649
980.016
980.389
980.767
981.148
981.531
981.912
982.29
982.665
983.034
983.396
983.75
984.096
984.431
984.755
985.069
985.37
985.659
985.935
986.199
986.45
986.687
986.912
987.125
987.324
987.511
987.686
987.85
988.001
988.141
988.271
988.39
988.499
988.598
988.687
988.767
988.838
988.9
988.953
988.998
989.034
989.06
989.078
989.087
989.086
989.077
989.056
989.026
988.984
988.931
988.865
988.787
988.695
988.589
988.468
988.331
988.179
988.01
987.824
987.621
987.401
987.163
986.908
986.637
986.35
986.047
985.73
985.399
985.057
984.704
984.341
983.971
983.594
983.213
982.829
982.445
982.061
981.678
981.3
980.927
980.56
980.201
979.851
979.511
979.181
978.862
978.555
978.258
977.969
977.693
977.43
977.16
976.897
976.659
976.399
976.101
975.852
975.611
975.239
974.883
974.652
974.268
973.755
973.425
973.104
972.622
972.193
971.864
1016.98
1016.96
1016.84
1016.68
1016.52
1016.21
1016.01
1015.81
1015.47
1015.2
1014.98
1014.69
1014.41
1014.16
1013.92
1013.66
1013.4
1013.17
1012.93
1012.68
1012.44
1012.19
1011.95
1011.7
1011.45
1011.2
1010.94
1010.68
1010.41
1010.13
1009.84
1009.55
1009.25
1008.93
1008.61
1008.27
1007.92
1007.56
1007.18
1006.79
1006.38
1005.95
1005.51
1005.05
1004.57
1004.07
1003.55
1003.01
1002.45
1001.87
1001.27
1000.65
1000.01
999.345
998.664
997.965
997.249
996.517
995.771
995.012
994.242
993.463
992.678
991.888
991.097
990.307
989.52
988.74
987.969
987.209
986.463
985.733
985.023
984.332
983.663
983.019
982.398
981.804
981.236
980.695
980.181
979.694
979.235
978.802
978.395
978.014
977.659
977.327
977.019
976.734
976.469
976.226
976.002
975.797
975.611
975.44
975.286
975.147
975.023
974.912
974.814
974.728
974.654
974.59
974.537
974.493
974.457
974.431
974.412
974.401
974.397
974.4
974.409
974.423
974.443
974.469
974.499
974.533
974.572
974.614
974.661
974.711
974.764
974.82
974.879
974.941
975.005
975.072
975.14
975.211
975.283
975.356
975.431
975.506
975.582
975.659
975.736
975.811
975.887
975.961
976.034
976.105
976.174
976.239
976.302
976.361
976.416
976.467
976.512
976.552
976.586
976.615
976.636
976.651
976.66
976.661
976.654
976.641
976.62
976.593
976.559
976.518
976.473
976.423
976.369
976.313
976.256
976.199
976.145
976.095
976.052
976.017
975.992
975.981
975.984
976.003
976.041
976.099
976.179
976.282
976.408
976.558
976.732
976.93
977.151
977.395
977.661
977.947
978.252
978.573
978.91
979.259
979.619
979.988
980.364
980.744
981.127
981.511
981.893
982.273
982.648
983.018
983.38
983.734
984.079
984.414
984.738
985.05
985.351
985.639
985.915
986.177
986.427
986.664
986.889
987.1
987.299
987.486
987.661
987.825
987.977
988.118
988.249
988.369
988.479
988.58
988.671
988.753
988.827
988.891
988.947
988.994
989.033
989.063
989.083
989.095
989.098
989.091
989.075
989.047
989.009
988.96
988.897
988.823
988.734
988.632
988.514
988.381
988.232
988.065
987.882
987.681
987.463
987.226
986.972
986.701
986.413
986.11
985.792
985.46
985.115
984.76
984.394
984.022
983.643
983.259
982.873
982.486
982.099
981.715
981.335
980.96
980.592
980.233
979.883
979.543
979.215
978.898
978.593
978.302
978.02
977.746
977.49
977.244
976.988
976.742
976.523
976.274
975.99
975.76
975.52
975.169
974.848
974.59
974.214
973.802
973.449
973.073
972.679
972.221
1016.75
1016.67
1016.58
1016.52
1016.31
1016.1
1015.94
1015.68
1015.43
1015.23
1014.97
1014.71
1014.48
1014.25
1013.99
1013.76
1013.53
1013.29
1013.05
1012.82
1012.59
1012.35
1012.11
1011.87
1011.62
1011.37
1011.12
1010.86
1010.59
1010.31
1010.03
1009.74
1009.44
1009.12
1008.8
1008.46
1008.11
1007.75
1007.37
1006.97
1006.56
1006.13
1005.68
1005.21
1004.72
1004.22
1003.69
1003.14
1002.57
1001.97
1001.36
1000.72
1000.06
999.384
998.684
997.966
997.228
996.474
995.705
994.923
994.128
993.325
992.515
991.701
990.885
990.071
989.262
988.46
987.669
986.891
986.128
985.384
984.66
983.959
983.282
982.631
982.007
981.41
980.842
980.303
979.793
979.312
978.859
978.434
978.037
977.666
977.322
977.002
976.706
976.433
976.181
975.95
975.739
975.546
975.371
975.212
975.069
974.941
974.826
974.725
974.636
974.559
974.492
974.435
974.388
974.35
974.32
974.297
974.283
974.274
974.273
974.277
974.286
974.301
974.321
974.345
974.373
974.405
974.442
974.481
974.524
974.57
974.619
974.671
974.725
974.782
974.841
974.903
974.966
975.032
975.1
975.169
975.24
975.312
975.386
975.46
975.535
975.61
975.685
975.759
975.833
975.906
975.977
976.046
976.113
976.176
976.236
976.291
976.342
976.388
976.428
976.462
976.49
976.511
976.525
976.531
976.53
976.522
976.506
976.483
976.452
976.416
976.374
976.326
976.275
976.222
976.167
976.113
976.061
976.013
975.972
975.939
975.916
975.907
975.912
975.934
975.975
976.036
976.119
976.225
976.355
976.508
976.686
976.888
977.113
977.361
977.63
977.92
978.228
978.552
978.891
979.243
979.605
979.976
980.354
980.735
981.119
981.503
981.886
982.265
982.639
983.008
983.369
983.722
984.065
984.399
984.721
985.032
985.33
985.617
985.891
986.152
986.4
986.636
986.858
987.069
987.267
987.454
987.628
987.792
987.944
988.086
988.217
988.339
988.45
988.553
988.646
988.731
988.807
988.874
988.933
988.983
989.025
989.059
989.083
989.099
989.105
989.102
989.089
989.065
989.031
988.985
988.926
988.855
988.771
988.671
988.557
988.428
988.282
988.118
987.938
987.74
987.523
987.288
987.035
986.765
986.478
986.174
985.856
985.523
985.177
984.819
984.453
984.078
983.697
983.311
982.923
982.533
982.145
981.759
981.378
981.002
980.634
980.274
979.924
979.586
979.259
978.946
978.643
978.355
978.082
977.819
977.563
977.327
977.101
976.861
976.634
976.435
976.199
975.931
975.718
975.486
975.155
974.855
974.59
974.235
973.833
973.482
973.104
972.569
1016.52
1016.48
1016.42
1016.3
1016.15
1016.03
1015.82
1015.6
1015.43
1015.21
1014.96
1014.76
1014.54
1014.3
1014.08
1013.86
1013.63
1013.4
1013.18
1012.96
1012.73
1012.5
1012.27
1012.03
1011.79
1011.55
1011.3
1011.04
1010.78
1010.5
1010.22
1009.93
1009.63
1009.32
1009
1008.66
1008.31
1007.94
1007.56
1007.16
1006.75
1006.31
1005.86
1005.39
1004.89
1004.38
1003.84
1003.28
1002.69
1002.09
1001.46
1000.8
1000.13
999.43
998.71
997.969
997.209
996.431
995.636
994.827
994.006
993.176
992.338
991.497
990.654
989.814
988.979
988.153
987.34
986.541
985.759
984.998
984.26
983.547
982.861
982.203
981.575
980.977
980.409
979.873
979.368
978.893
978.448
978.033
977.646
977.287
976.955
976.648
976.365
976.105
975.867
975.65
975.452
975.273
975.111
974.965
974.834
974.717
974.614
974.523
974.444
974.375
974.317
974.268
974.228
974.196
974.171
974.153
974.142
974.137
974.138
974.144
974.154
974.169
974.188
974.211
974.237
974.266
974.299
974.334
974.373
974.414
974.458
974.504
974.552
974.603
974.656
974.711
974.769
974.828
974.89
974.954
975.019
975.086
975.155
975.225
975.297
975.37
975.443
975.517
975.59
975.664
975.737
975.807
975.877
975.944
976.009
976.07
976.126
976.179
976.226
976.267
976.303
976.331
976.353
976.367
976.373
976.372
976.363
976.347
976.323
976.293
976.257
976.215
976.17
976.122
976.072
976.023
975.976
975.933
975.896
975.868
975.85
975.845
975.855
975.882
975.927
975.993